# vtk DataFile Version 3.0
Poisson equation solution
ASCII
DATASET STRUCTURED_GRID
DIMENSIONS 31 31 1
POINTS 961 float
0 0 0
0.0333333 0 0
0.0666667 0 0
0.1 0 0
0.133333 0 0
0.166667 0 0
0.2 0 0
0.233333 0 0
0.266667 0 0
0.3 0 0
0.333333 0 0
0.366667 0 0
0.4 0 0
0.433333 0 0
0.466667 0 0
0.5 0 0
0.533333 0 0
0.566667 0 0
0.6 0 0
0.633333 0 0
0.666667 0 0
0.7 0 0
0.733333 0 0
0.766667 0 0
0.8 0 0
0.833333 0 0
0.866667 0 0
0.9 0 0
0.933333 0 0
0.966667 0 0
1 0 0
0 0.0333333 0
0.0333333 0.0333333 0
0.0666667 0.0333333 0
0.1 0.0333333 0
0.133333 0.0333333 0
0.166667 0.0333333 0
0.2 0.0333333 0
0.233333 0.0333333 0
0.266667 0.0333333 0
0.3 0.0333333 0
0.333333 0.0333333 0
0.366667 0.0333333 0
0.4 0.0333333 0
0.433333 0.0333333 0
0.466667 0.0333333 0
0.5 0.0333333 0
0.533333 0.0333333 0
0.566667 0.0333333 0
0.6 0.0333333 0
0.633333 0.0333333 0
0.666667 0.0333333 0
0.7 0.0333333 0
0.733333 0.0333333 0
0.766667 0.0333333 0
0.8 0.0333333 0
0.833333 0.0333333 0
0.866667 0.0333333 0
0.9 0.0333333 0
0.933333 0.0333333 0
0.966667 0.0333333 0
1 0.0333333 0
0 0.0666667 0
0.0333333 0.0666667 0
0.0666667 0.0666667 0
0.1 0.0666667 0
0.133333 0.0666667 0
0.166667 0.0666667 0
0.2 0.0666667 0
0.233333 0.0666667 0
0.266667 0.0666667 0
0.3 0.0666667 0
0.333333 0.0666667 0
0.366667 0.0666667 0
0.4 0.0666667 0
0.433333 0.0666667 0
0.466667 0.0666667 0
0.5 0.0666667 0
0.533333 0.0666667 0
0.566667 0.0666667 0
0.6 0.0666667 0
0.633333 0.0666667 0
0.666667 0.0666667 0
0.7 0.0666667 0
0.733333 0.0666667 0
0.766667 0.0666667 0
0.8 0.0666667 0
0.833333 0.0666667 0
0.866667 0.0666667 0
0.9 0.0666667 0
0.933333 0.0666667 0
0.966667 0.0666667 0
1 0.0666667 0
0 0.1 0
0.0333333 0.1 0
0.0666667 0.1 0
0.1 0.1 0
0.133333 0.1 0
0.166667 0.1 0
0.2 0.1 0
0.233333 0.1 0
0.266667 0.1 0
0.3 0.1 0
0.333333 0.1 0
0.366667 0.1 0
0.4 0.1 0
0.433333 0.1 0
0.466667 0.1 0
0.5 0.1 0
0.533333 0.1 0
0.566667 0.1 0
0.6 0.1 0
0.633333 0.1 0
0.666667 0.1 0
0.7 0.1 0
0.733333 0.1 0
0.766667 0.1 0
0.8 0.1 0
0.833333 0.1 0
0.866667 0.1 0
0.9 0.1 0
0.933333 0.1 0
0.966667 0.1 0
1 0.1 0
0 0.133333 0
0.0333333 0.133333 0
0.0666667 0.133333 0
0.1 0.133333 0
0.133333 0.133333 0
0.166667 0.133333 0
0.2 0.133333 0
0.233333 0.133333 0
0.266667 0.133333 0
0.3 0.133333 0
0.333333 0.133333 0
0.366667 0.133333 0
0.4 0.133333 0
0.433333 0.133333 0
0.466667 0.133333 0
0.5 0.133333 0
0.533333 0.133333 0
0.566667 0.133333 0
0.6 0.133333 0
0.633333 0.133333 0
0.666667 0.133333 0
0.7 0.133333 0
0.733333 0.133333 0
0.766667 0.133333 0
0.8 0.133333 0
0.833333 0.133333 0
0.866667 0.133333 0
0.9 0.133333 0
0.933333 0.133333 0
0.966667 0.133333 0
1 0.133333 0
0 0.166667 0
0.0333333 0.166667 0
0.0666667 0.166667 0
0.1 0.166667 0
0.133333 0.166667 0
0.166667 0.166667 0
0.2 0.166667 0
0.233333 0.166667 0
0.266667 0.166667 0
0.3 0.166667 0
0.333333 0.166667 0
0.366667 0.166667 0
0.4 0.166667 0
0.433333 0.166667 0
0.466667 0.166667 0
0.5 0.166667 0
0.533333 0.166667 0
0.566667 0.166667 0
0.6 0.166667 0
0.633333 0.166667 0
0.666667 0.166667 0
0.7 0.166667 0
0.733333 0.166667 0
0.766667 0.166667 0
0.8 0.166667 0
0.833333 0.166667 0
0.866667 0.166667 0
0.9 0.166667 0
0.933333 0.166667 0
0.966667 0.166667 0
1 0.166667 0
0 0.2 0
0.0333333 0.2 0
0.0666667 0.2 0
0.1 0.2 0
0.133333 0.2 0
0.166667 0.2 0
0.2 0.2 0
0.233333 0.2 0
0.266667 0.2 0
0.3 0.2 0
0.333333 0.2 0
0.366667 0.2 0
0.4 0.2 0
0.433333 0.2 0
0.466667 0.2 0
0.5 0.2 0
0.533333 0.2 0
0.566667 0.2 0
0.6 0.2 0
0.633333 0.2 0
0.666667 0.2 0
0.7 0.2 0
0.733333 0.2 0
0.766667 0.2 0
0.8 0.2 0
0.833333 0.2 0
0.866667 0.2 0
0.9 0.2 0
0.933333 0.2 0
0.966667 0.2 0
1 0.2 0
0 0.233333 0
0.0333333 0.233333 0
0.0666667 0.233333 0
0.1 0.233333 0
0.133333 0.233333 0
0.166667 0.233333 0
0.2 0.233333 0
0.233333 0.233333 0
0.266667 0.233333 0
0.3 0.233333 0
0.333333 0.233333 0
0.366667 0.233333 0
0.4 0.233333 0
0.433333 0.233333 0
0.466667 0.233333 0
0.5 0.233333 0
0.533333 0.233333 0
0.566667 0.233333 0
0.6 0.233333 0
0.633333 0.233333 0
0.666667 0.233333 0
0.7 0.233333 0
0.733333 0.233333 0
0.766667 0.233333 0
0.8 0.233333 0
0.833333 0.233333 0
0.866667 0.233333 0
0.9 0.233333 0
0.933333 0.233333 0
0.966667 0.233333 0
1 0.233333 0
0 0.266667 0
0.0333333 0.266667 0
0.0666667 0.266667 0
0.1 0.266667 0
0.133333 0.266667 0
0.166667 0.266667 0
0.2 0.266667 0
0.233333 0.266667 0
0.266667 0.266667 0
0.3 0.266667 0
0.333333 0.266667 0
0.366667 0.266667 0
0.4 0.266667 0
0.433333 0.266667 0
0.466667 0.266667 0
0.5 0.266667 0
0.533333 0.266667 0
0.566667 0.266667 0
0.6 0.266667 0
0.633333 0.266667 0
0.666667 0.266667 0
0.7 0.266667 0
0.733333 0.266667 0
0.766667 0.266667 0
0.8 0.266667 0
0.833333 0.266667 0
0.866667 0.266667 0
0.9 0.266667 0
0.933333 0.266667 0
0.966667 0.266667 0
1 0.266667 0
0 0.3 0
0.0333333 0.3 0
0.0666667 0.3 0
0.1 0.3 0
0.133333 0.3 0
0.166667 0.3 0
0.2 0.3 0
0.233333 0.3 0
0.266667 0.3 0
0.3 0.3 0
0.333333 0.3 0
0.366667 0.3 0
0.4 0.3 0
0.433333 0.3 0
0.466667 0.3 0
0.5 0.3 0
0.533333 0.3 0
0.566667 0.3 0
0.6 0.3 0
0.633333 0.3 0
0.666667 0.3 0
0.7 0.3 0
0.733333 0.3 0
0.766667 0.3 0
0.8 0.3 0
0.833333 0.3 0
0.866667 0.3 0
0.9 0.3 0
0.933333 0.3 0
0.966667 0.3 0
1 0.3 0
0 0.333333 0
0.0333333 0.333333 0
0.0666667 0.333333 0
0.1 0.333333 0
0.133333 0.333333 0
0.166667 0.333333 0
0.2 0.333333 0
0.233333 0.333333 0
0.266667 0.333333 0
0.3 0.333333 0
0.333333 0.333333 0
0.366667 0.333333 0
0.4 0.333333 0
0.433333 0.333333 0
0.466667 0.333333 0
0.5 0.333333 0
0.533333 0.333333 0
0.566667 0.333333 0
0.6 0.333333 0
0.633333 0.333333 0
0.666667 0.333333 0
0.7 0.333333 0
0.733333 0.333333 0
0.766667 0.333333 0
0.8 0.333333 0
0.833333 0.333333 0
0.866667 0.333333 0
0.9 0.333333 0
0.933333 0.333333 0
0.966667 0.333333 0
1 0.333333 0
0 0.366667 0
0.0333333 0.366667 0
0.0666667 0.366667 0
0.1 0.366667 0
0.133333 0.366667 0
0.166667 0.366667 0
0.2 0.366667 0
0.233333 0.366667 0
0.266667 0.366667 0
0.3 0.366667 0
0.333333 0.366667 0
0.366667 0.366667 0
0.4 0.366667 0
0.433333 0.366667 0
0.466667 0.366667 0
0.5 0.366667 0
0.533333 0.366667 0
0.566667 0.366667 0
0.6 0.366667 0
0.633333 0.366667 0
0.666667 0.366667 0
0.7 0.366667 0
0.733333 0.366667 0
0.766667 0.366667 0
0.8 0.366667 0
0.833333 0.366667 0
0.866667 0.366667 0
0.9 0.366667 0
0.933333 0.366667 0
0.966667 0.366667 0
1 0.366667 0
0 0.4 0
0.0333333 0.4 0
0.0666667 0.4 0
0.1 0.4 0
0.133333 0.4 0
0.166667 0.4 0
0.2 0.4 0
0.233333 0.4 0
0.266667 0.4 0
0.3 0.4 0
0.333333 0.4 0
0.366667 0.4 0
0.4 0.4 0
0.433333 0.4 0
0.466667 0.4 0
0.5 0.4 0
0.533333 0.4 0
0.566667 0.4 0
0.6 0.4 0
0.633333 0.4 0
0.666667 0.4 0
0.7 0.4 0
0.733333 0.4 0
0.766667 0.4 0
0.8 0.4 0
0.833333 0.4 0
0.866667 0.4 0
0.9 0.4 0
0.933333 0.4 0
0.966667 0.4 0
1 0.4 0
0 0.433333 0
0.0333333 0.433333 0
0.0666667 0.433333 0
0.1 0.433333 0
0.133333 0.433333 0
0.166667 0.433333 0
0.2 0.433333 0
0.233333 0.433333 0
0.266667 0.433333 0
0.3 0.433333 0
0.333333 0.433333 0
0.366667 0.433333 0
0.4 0.433333 0
0.433333 0.433333 0
0.466667 0.433333 0
0.5 0.433333 0
0.533333 0.433333 0
0.566667 0.433333 0
0.6 0.433333 0
0.633333 0.433333 0
0.666667 0.433333 0
0.7 0.433333 0
0.733333 0.433333 0
0.766667 0.433333 0
0.8 0.433333 0
0.833333 0.433333 0
0.866667 0.433333 0
0.9 0.433333 0
0.933333 0.433333 0
0.966667 0.433333 0
1 0.433333 0
0 0.466667 0
0.0333333 0.466667 0
0.0666667 0.466667 0
0.1 0.466667 0
0.133333 0.466667 0
0.166667 0.466667 0
0.2 0.466667 0
0.233333 0.466667 0
0.266667 0.466667 0
0.3 0.466667 0
0.333333 0.466667 0
0.366667 0.466667 0
0.4 0.466667 0
0.433333 0.466667 0
0.466667 0.466667 0
0.5 0.466667 0
0.533333 0.466667 0
0.566667 0.466667 0
0.6 0.466667 0
0.633333 0.466667 0
0.666667 0.466667 0
0.7 0.466667 0
0.733333 0.466667 0
0.766667 0.466667 0
0.8 0.466667 0
0.833333 0.466667 0
0.866667 0.466667 0
0.9 0.466667 0
0.933333 0.466667 0
0.966667 0.466667 0
1 0.466667 0
0 0.5 0
0.0333333 0.5 0
0.0666667 0.5 0
0.1 0.5 0
0.133333 0.5 0
0.166667 0.5 0
0.2 0.5 0
0.233333 0.5 0
0.266667 0.5 0
0.3 0.5 0
0.333333 0.5 0
0.366667 0.5 0
0.4 0.5 0
0.433333 0.5 0
0.466667 0.5 0
0.5 0.5 0
0.533333 0.5 0
0.566667 0.5 0
0.6 0.5 0
0.633333 0.5 0
0.666667 0.5 0
0.7 0.5 0
0.733333 0.5 0
0.766667 0.5 0
0.8 0.5 0
0.833333 0.5 0
0.866667 0.5 0
0.9 0.5 0
0.933333 0.5 0
0.966667 0.5 0
1 0.5 0
0 0.533333 0
0.0333333 0.533333 0
0.0666667 0.533333 0
0.1 0.533333 0
0.133333 0.533333 0
0.166667 0.533333 0
0.2 0.533333 0
0.233333 0.533333 0
0.266667 0.533333 0
0.3 0.533333 0
0.333333 0.533333 0
0.366667 0.533333 0
0.4 0.533333 0
0.433333 0.533333 0
0.466667 0.533333 0
0.5 0.533333 0
0.533333 0.533333 0
0.566667 0.533333 0
0.6 0.533333 0
0.633333 0.533333 0
0.666667 0.533333 0
0.7 0.533333 0
0.733333 0.533333 0
0.766667 0.533333 0
0.8 0.533333 0
0.833333 0.533333 0
0.866667 0.533333 0
0.9 0.533333 0
0.933333 0.533333 0
0.966667 0.533333 0
1 0.533333 0
0 0.566667 0
0.0333333 0.566667 0
0.0666667 0.566667 0
0.1 0.566667 0
0.133333 0.566667 0
0.166667 0.566667 0
0.2 0.566667 0
0.233333 0.566667 0
0.266667 0.566667 0
0.3 0.566667 0
0.333333 0.566667 0
0.366667 0.566667 0
0.4 0.566667 0
0.433333 0.566667 0
0.466667 0.566667 0
0.5 0.566667 0
0.533333 0.566667 0
0.566667 0.566667 0
0.6 0.566667 0
0.633333 0.566667 0
0.666667 0.566667 0
0.7 0.566667 0
0.733333 0.566667 0
0.766667 0.566667 0
0.8 0.566667 0
0.833333 0.566667 0
0.866667 0.566667 0
0.9 0.566667 0
0.933333 0.566667 0
0.966667 0.566667 0
1 0.566667 0
0 0.6 0
0.0333333 0.6 0
0.0666667 0.6 0
0.1 0.6 0
0.133333 0.6 0
0.166667 0.6 0
0.2 0.6 0
0.233333 0.6 0
0.266667 0.6 0
0.3 0.6 0
0.333333 0.6 0
0.366667 0.6 0
0.4 0.6 0
0.433333 0.6 0
0.466667 0.6 0
0.5 0.6 0
0.533333 0.6 0
0.566667 0.6 0
0.6 0.6 0
0.633333 0.6 0
0.666667 0.6 0
0.7 0.6 0
0.733333 0.6 0
0.766667 0.6 0
0.8 0.6 0
0.833333 0.6 0
0.866667 0.6 0
0.9 0.6 0
0.933333 0.6 0
0.966667 0.6 0
1 0.6 0
0 0.633333 0
0.0333333 0.633333 0
0.0666667 0.633333 0
0.1 0.633333 0
0.133333 0.633333 0
0.166667 0.633333 0
0.2 0.633333 0
0.233333 0.633333 0
0.266667 0.633333 0
0.3 0.633333 0
0.333333 0.633333 0
0.366667 0.633333 0
0.4 0.633333 0
0.433333 0.633333 0
0.466667 0.633333 0
0.5 0.633333 0
0.533333 0.633333 0
0.566667 0.633333 0
0.6 0.633333 0
0.633333 0.633333 0
0.666667 0.633333 0
0.7 0.633333 0
0.733333 0.633333 0
0.766667 0.633333 0
0.8 0.633333 0
0.833333 0.633333 0
0.866667 0.633333 0
0.9 0.633333 0
0.933333 0.633333 0
0.966667 0.633333 0
1 0.633333 0
0 0.666667 0
0.0333333 0.666667 0
0.0666667 0.666667 0
0.1 0.666667 0
0.133333 0.666667 0
0.166667 0.666667 0
0.2 0.666667 0
0.233333 0.666667 0
0.266667 0.666667 0
0.3 0.666667 0
0.333333 0.666667 0
0.366667 0.666667 0
0.4 0.666667 0
0.433333 0.666667 0
0.466667 0.666667 0
0.5 0.666667 0
0.533333 0.666667 0
0.566667 0.666667 0
0.6 0.666667 0
0.633333 0.666667 0
0.666667 0.666667 0
0.7 0.666667 0
0.733333 0.666667 0
0.766667 0.666667 0
0.8 0.666667 0
0.833333 0.666667 0
0.866667 0.666667 0
0.9 0.666667 0
0.933333 0.666667 0
0.966667 0.666667 0
1 0.666667 0
0 0.7 0
0.0333333 0.7 0
0.0666667 0.7 0
0.1 0.7 0
0.133333 0.7 0
0.166667 0.7 0
0.2 0.7 0
0.233333 0.7 0
0.266667 0.7 0
0.3 0.7 0
0.333333 0.7 0
0.366667 0.7 0
0.4 0.7 0
0.433333 0.7 0
0.466667 0.7 0
0.5 0.7 0
0.533333 0.7 0
0.566667 0.7 0
0.6 0.7 0
0.633333 0.7 0
0.666667 0.7 0
0.7 0.7 0
0.733333 0.7 0
0.766667 0.7 0
0.8 0.7 0
0.833333 0.7 0
0.866667 0.7 0
0.9 0.7 0
0.933333 0.7 0
0.966667 0.7 0
1 0.7 0
0 0.733333 0
0.0333333 0.733333 0
0.0666667 0.733333 0
0.1 0.733333 0
0.133333 0.733333 0
0.166667 0.733333 0
0.2 0.733333 0
0.233333 0.733333 0
0.266667 0.733333 0
0.3 0.733333 0
0.333333 0.733333 0
0.366667 0.733333 0
0.4 0.733333 0
0.433333 0.733333 0
0.466667 0.733333 0
0.5 0.733333 0
0.533333 0.733333 0
0.566667 0.733333 0
0.6 0.733333 0
0.633333 0.733333 0
0.666667 0.733333 0
0.7 0.733333 0
0.733333 0.733333 0
0.766667 0.733333 0
0.8 0.733333 0
0.833333 0.733333 0
0.866667 0.733333 0
0.9 0.733333 0
0.933333 0.733333 0
0.966667 0.733333 0
1 0.733333 0
0 0.766667 0
0.0333333 0.766667 0
0.0666667 0.766667 0
0.1 0.766667 0
0.133333 0.766667 0
0.166667 0.766667 0
0.2 0.766667 0
0.233333 0.766667 0
0.266667 0.766667 0
0.3 0.766667 0
0.333333 0.766667 0
0.366667 0.766667 0
0.4 0.766667 0
0.433333 0.766667 0
0.466667 0.766667 0
0.5 0.766667 0
0.533333 0.766667 0
0.566667 0.766667 0
0.6 0.766667 0
0.633333 0.766667 0
0.666667 0.766667 0
0.7 0.766667 0
0.733333 0.766667 0
0.766667 0.766667 0
0.8 0.766667 0
0.833333 0.766667 0
0.866667 0.766667 0
0.9 0.766667 0
0.933333 0.766667 0
0.966667 0.766667 0
1 0.766667 0
0 0.8 0
0.0333333 0.8 0
0.0666667 0.8 0
0.1 0.8 0
0.133333 0.8 0
0.166667 0.8 0
0.2 0.8 0
0.233333 0.8 0
0.266667 0.8 0
0.3 0.8 0
0.333333 0.8 0
0.366667 0.8 0
0.4 0.8 0
0.433333 0.8 0
0.466667 0.8 0
0.5 0.8 0
0.533333 0.8 0
0.566667 0.8 0
0.6 0.8 0
0.633333 0.8 0
0.666667 0.8 0
0.7 0.8 0
0.733333 0.8 0
0.766667 0.8 0
0.8 0.8 0
0.833333 0.8 0
0.866667 0.8 0
0.9 0.8 0
0.933333 0.8 0
0.966667 0.8 0
1 0.8 0
0 0.833333 0
0.0333333 0.833333 0
0.0666667 0.833333 0
0.1 0.833333 0
0.133333 0.833333 0
0.166667 0.833333 0
0.2 0.833333 0
0.233333 0.833333 0
0.266667 0.833333 0
0.3 0.833333 0
0.333333 0.833333 0
0.366667 0.833333 0
0.4 0.833333 0
0.433333 0.833333 0
0.466667 0.833333 0
0.5 0.833333 0
0.533333 0.833333 0
0.566667 0.833333 0
0.6 0.833333 0
0.633333 0.833333 0
0.666667 0.833333 0
0.7 0.833333 0
0.733333 0.833333 0
0.766667 0.833333 0
0.8 0.833333 0
0.833333 0.833333 0
0.866667 0.833333 0
0.9 0.833333 0
0.933333 0.833333 0
0.966667 0.833333 0
1 0.833333 0
0 0.866667 0
0.0333333 0.866667 0
0.0666667 0.866667 0
0.1 0.866667 0
0.133333 0.866667 0
0.166667 0.866667 0
0.2 0.866667 0
0.233333 0.866667 0
0.266667 0.866667 0
0.3 0.866667 0
0.333333 0.866667 0
0.366667 0.866667 0
0.4 0.866667 0
0.433333 0.866667 0
0.466667 0.866667 0
0.5 0.866667 0
0.533333 0.866667 0
0.566667 0.866667 0
0.6 0.866667 0
0.633333 0.866667 0
0.666667 0.866667 0
0.7 0.866667 0
0.733333 0.866667 0
0.766667 0.866667 0
0.8 0.866667 0
0.833333 0.866667 0
0.866667 0.866667 0
0.9 0.866667 0
0.933333 0.866667 0
0.966667 0.866667 0
1 0.866667 0
0 0.9 0
0.0333333 0.9 0
0.0666667 0.9 0
0.1 0.9 0
0.133333 0.9 0
0.166667 0.9 0
0.2 0.9 0
0.233333 0.9 0
0.266667 0.9 0
0.3 0.9 0
0.333333 0.9 0
0.366667 0.9 0
0.4 0.9 0
0.433333 0.9 0
0.466667 0.9 0
0.5 0.9 0
0.533333 0.9 0
0.566667 0.9 0
0.6 0.9 0
0.633333 0.9 0
0.666667 0.9 0
0.7 0.9 0
0.733333 0.9 0
0.766667 0.9 0
0.8 0.9 0
0.833333 0.9 0
0.866667 0.9 0
0.9 0.9 0
0.933333 0.9 0
0.966667 0.9 0
1 0.9 0
0 0.933333 0
0.0333333 0.933333 0
0.0666667 0.933333 0
0.1 0.933333 0
0.133333 0.933333 0
0.166667 0.933333 0
0.2 0.933333 0
0.233333 0.933333 0
0.266667 0.933333 0
0.3 0.933333 0
0.333333 0.933333 0
0.366667 0.933333 0
0.4 0.933333 0
0.433333 0.933333 0
0.466667 0.933333 0
0.5 0.933333 0
0.533333 0.933333 0
0.566667 0.933333 0
0.6 0.933333 0
0.633333 0.933333 0
0.666667 0.933333 0
0.7 0.933333 0
0.733333 0.933333 0
0.766667 0.933333 0
0.8 0.933333 0
0.833333 0.933333 0
0.866667 0.933333 0
0.9 0.933333 0
0.933333 0.933333 0
0.966667 0.933333 0
1 0.933333 0
0 0.966667 0
0.0333333 0.966667 0
0.0666667 0.966667 0
0.1 0.966667 0
0.133333 0.966667 0
0.166667 0.966667 0
0.2 0.966667 0
0.233333 0.966667 0
0.266667 0.966667 0
0.3 0.966667 0
0.333333 0.966667 0
0.366667 0.966667 0
0.4 0.966667 0
0.433333 0.966667 0
0.466667 0.966667 0
0.5 0.966667 0
0.533333 0.966667 0
0.566667 0.966667 0
0.6 0.966667 0
0.633333 0.966667 0
0.666667 0.966667 0
0.7 0.966667 0
0.733333 0.966667 0
0.766667 0.966667 0
0.8 0.966667 0
0.833333 0.966667 0
0.866667 0.966667 0
0.9 0.966667 0
0.933333 0.966667 0
0.966667 0.966667 0
1 0.966667 0
0 1 0
0.0333333 1 0
0.0666667 1 0
0.1 1 0
0.133333 1 0
0.166667 1 0
0.2 1 0
0.233333 1 0
0.266667 1 0
0.3 1 0
0.333333 1 0
0.366667 1 0
0.4 1 0
0.433333 1 0
0.466667 1 0
0.5 1 0
0.533333 1 0
0.566667 1 0
0.6 1 0
0.633333 1 0
0.666667 1 0
0.7 1 0
0.733333 1 0
0.766667 1 0
0.8 1 0
0.833333 1 0
0.866667 1 0
0.9 1 0
0.933333 1 0
0.966667 1 0
1 1 0
POINT_DATA 961
SCALARS solution float 1
LOOKUP_TABLE default
0
0
0
0
0
0
0
0
0
0
0
0
0
0
0
0
0
0
0
0
0
0
0
0
0
0
0
0
0
0
0
0
0.00607899
0.0120884
0.0179597
0.0236266
0.0290254
0.0340968
0.0387855
0.0430416
0.0468206
0.0500837
0.0527982
0.0549371
0.0564798
0.0574113
0.0577228
0.0574113
0.0564798
0.0549371
0.0527982
0.0500837
0.0468206
0.0430416
0.0387855
0.0340968
0.0290254
0.0236266
0.0179597
0.0120884
0.00607899
7.12268e-18
0
0.0122277
0.0243152
0.0361245
0.0475217
0.0583792
0.068577
0.0780045
0.0865613
0.094158
0.100717
0.106173
0.110472
0.113572
0.115444
0.116069
0.115444
0.113572
0.110472
0.106173
0.100717
0.094158
0.0865613
0.0780045
0.068577
0.0583792
0.0475217
0.0361245
0.0243152
0.0122277
1.43271e-17
0
0.018517
0.036821
0.0547024
0.0719579
0.0883941
0.103829
0.118096
0.131043
0.142535
0.152456
0.160707
0.167207
0.171894
0.174724
0.17567
0.174724
0.171894
0.167207
0.160707
0.152456
0.142535
0.131043
0.118096
0.103829
0.0883941
0.0719579
0.0547024
0.036821
0.018517
2.16964e-17
0
0.0250199
0.0497506
0.0739076
0.0972156
0.119412
0.140253
0.159511
0.176982
0.192487
0.205868
0.216994
0.225758
0.232076
0.235891
0.237166
0.235891
0.232076
0.225758
0.216994
0.205868
0.192487
0.176982
0.159511
0.140253
0.119412
0.0972156
0.0739076
0.0497506
0.0250199
2.93161e-17
0
0.0318127
0.0632553
0.0939641
0.123587
0.151791
0.178262
0.202715
0.224892
0.244566
0.261539
0.275648
0.286758
0.294766
0.2996
0.301217
0.2996
0.294766
0.286758
0.275648
0.261539
0.244566
0.224892
0.202715
0.178262
0.151791
0.123587
0.0939641
0.0632553
0.0318127
3.72758e-17
0
0.0389766
0.077496
0.115109
0.151382
0.185905
0.218294
0.248201
0.275311
0.29935
0.320081
0.337305
0.350864
0.360636
0.366533
0.368504
0.366533
0.360636
0.350864
0.337305
0.320081
0.29935
0.275311
0.248201
0.218294
0.185905
0.151382
0.115109
0.077496
0.0389766
4.56707e-17
0
0.0465991
0.0926457
0.137598
0.180933
0.222158
0.260816
0.296489
0.328809
0.357449
0.382134
0.402634
0.418765
0.430385
0.437397
0.43974
0.437397
0.430385
0.418765
0.402634
0.382134
0.357449
0.328809
0.296489
0.260816
0.222158
0.180933
0.137598
0.0926457
0.0465991
5.46035e-17
0
0.0547758
0.108893
0.161708
0.2126
0.260986
0.306328
0.34814
0.385993
0.419511
0.448381
0.47234
0.491183
0.504751
0.512935
0.51567
0.512935
0.504751
0.491183
0.47234
0.448381
0.419511
0.385993
0.34814
0.306328
0.260986
0.2126
0.161708
0.108893
0.0547758
6.41865e-17
0
0.063613
0.126449
0.187747
0.24678
0.302865
0.355379
0.403761
0.44752
0.486232
0.519546
0.547171
0.568882
0.584508
0.593929
0.597078
0.593929
0.584508
0.568882
0.547171
0.519546
0.486232
0.44752
0.403761
0.355379
0.302865
0.24678
0.187747
0.126449
0.063613
7.45445e-17
0
0.0732303
0.145547
0.216059
0.283916
0.348328
0.408574
0.464018
0.514104
0.558363
0.596408
0.627927
0.652676
0.670477
0.681205
0.684789
0.681205
0.670477
0.652676
0.627927
0.596408
0.558363
0.514104
0.464018
0.408574
0.348328
0.283916
0.216059
0.145547
0.0732303
8.58181e-17
0
0.0837645
0.166458
0.247036
0.324511
0.397968
0.466587
0.529646
0.586528
0.636722
0.679809
0.715462
0.743428
0.763527
0.775633
0.779676
0.775633
0.763527
0.743428
0.715462
0.679809
0.636722
0.586528
0.529646
0.466587
0.397968
0.324511
0.247036
0.166458
0.0837645
9.81685e-17
0
0.095375
0.189492
0.281129
0.369138
0.452465
0.530176
0.601466
0.665658
0.722201
0.770658
0.810693
0.842059
0.864577
0.878132
0.882657
0.878132
0.864577
0.842059
0.810693
0.770658
0.722201
0.665658
0.601466
0.530176
0.452465
0.369138
0.281129
0.189492
0.095375
1.11783e-16
0
0.10825
0.215017
0.318869
0.418466
0.512598
0.60021
0.680406
0.752457
0.815783
0.869943
0.914608
0.949546
0.974599
0.989667
0.994696
0.989667
0.974599
0.949546
0.914608
0.869943
0.815783
0.752457
0.680406
0.60021
0.512598
0.418466
0.318869
0.215017
0.10825
1.26884e-16
0
0.122616
0.243474
0.360885
0.473284
0.579281
0.677685
0.767518
0.848002
0.918552
0.978737
1.02826
1.06693
1.09461
1.11125
1.1168
1.11125
1.09461
1.06693
1.02826
0.978737
0.918552
0.848002
0.767518
0.677685
0.579281
0.473284
0.360885
0.243474
0.122616
1.43739e-16
0
0.138751
0.275401
0.407941
0.534538
0.653592
0.763768
0.864007
0.953511
1.03171
1.09821
1.15278
1.1953
1.22568
1.24392
1.25
1.24392
1.22568
1.1953
1.15278
1.09821
1.03171
0.953511
0.864007
0.763768
0.653592
0.534538
0.407941
0.275401
0.138751
1.62676e-16
0
0.157003
0.311466
0.460981
0.603382
0.736826
0.85983
0.971272
1.07036
1.15658
1.22963
1.28938
1.3358
1.36891
1.38875
1.39536
1.38875
1.36891
1.3358
1.28938
1.22963
1.15658
1.07036
0.971272
0.85983
0.736826
0.603382
0.460981
0.311466
0.157003
1.84108e-16
0
0.177818
0.352522
0.521189
0.681243
0.83056
0.96751
1.09094
1.20011
1.29464
1.37436
1.43932
1.48962
1.5254
1.54681
1.55393
1.54681
1.5254
1.48962
1.43932
1.37436
1.29464
1.20011
1.09094
0.96751
0.83056
0.681243
0.521189
0.352522
0.177818
2.08565e-16
0
0.201779
0.399675
0.590087
0.769925
0.936743
1.08878
1.22492
1.34456
1.44752
1.53389
1.60392
1.65794
1.69626
1.71914
1.72675
1.71914
1.69626
1.65794
1.60392
1.53389
1.44752
1.34456
1.22492
1.08878
0.936743
0.769925
0.590087
0.399675
0.201779
2.36741e-16
0
0.229672
0.454399
0.669671
0.871742
1.05781
1.22605
1.37546
1.50573
1.61701
1.70976
1.78454
1.84196
1.88255
1.90673
1.91476
1.90673
1.88255
1.84196
1.78454
1.70976
1.61701
1.50573
1.37546
1.22605
1.05781
0.871742
0.669671
0.454399
0.229672
2.69578e-16
0
0.262585
0.518713
0.762617
0.989721
1.19686
1.38225
1.54522
1.68593
1.80507
1.90359
1.98251
2.04278
2.08522
2.11043
2.11879
2.11043
2.08522
2.04278
1.98251
1.90359
1.80507
1.68593
1.54522
1.38225
1.19686
0.989721
0.762617
0.518713
0.262585
3.08385e-16
0
0.302074
0.595458
0.872606
1.12789
1.35786
1.56101
1.73732
1.88775
2.01377
2.11702
2.19909
2.2614
2.30507
2.33094
2.33951
2.33094
2.30507
2.2614
2.19909
2.11702
2.01377
1.88775
1.73732
1.56101
1.35786
1.12789
0.872606
0.595458
0.302074
3.5506e-16
0
0.350454
0.688775
1.00483
1.29172
1.54593
1.76676
1.95539
2.11401
2.24522
2.35158
2.4354
2.4986
2.54268
2.5687
2.57731
2.5687
2.54268
2.4986
2.4354
2.35158
2.24522
2.11401
1.95539
1.76676
1.54593
1.29172
1.00483
0.688775
0.350454
4.12467e-16
0
0.411327
0.804926
1.16681
1.48869
1.7677
2.00489
2.20351
2.36767
2.50147
2.60863
2.69226
2.75485
2.79827
2.82381
2.83224
2.82381
2.79827
2.75485
2.69226
2.60863
2.50147
2.36767
2.20351
2.00489
1.7677
1.48869
1.16681
0.804926
0.411327
4.8519e-16
0
0.490613
0.953804
1.36975
1.72919
2.03162
2.28171
2.4861
2.6516
2.78426
2.88909
2.97006
3.03018
3.07164
3.09595
3.10396
3.09595
3.07164
3.03018
2.97006
2.88909
2.78426
2.6516
2.4861
2.28171
2.03162
1.72919
1.36975
0.953804
0.490613
5.81093e-16
0
0.598747
1.15184
1.6307
2.02752
2.34821
2.60421
2.80743
2.96819
3.09471
3.19327
3.26857
3.32403
3.36207
3.38429
3.3916
3.38429
3.36207
3.32403
3.26857
3.19327
3.09471
2.96819
2.80743
2.60421
2.34821
2.02752
1.6307
1.15184
0.598747
7.14942e-16
0
0.755886
1.42787
1.97598
2.40278
2.72948
2.97918
3.17087
3.3187
3.43284
3.52049
3.58675
3.63518
3.66822
3.68744
3.69376
3.68744
3.66822
3.63518
3.58675
3.52049
3.43284
3.3187
3.17087
2.97918
2.72948
2.40278
1.97598
1.42787
0.755886
9.17736e-16
0
1.00609
1.83541
2.4453
2.87815
3.18694
3.41131
3.57749
3.70242
3.79711
3.86887
3.92259
3.96158
3.98805
4.00341
4.00845
4.00341
3.98805
3.96158
3.92259
3.86887
3.79711
3.70242
3.57749
3.41131
3.18694
2.87815
2.4453
1.83541
1.00609
1.26455e-15
0
1.46372
2.47568
3.09165
3.47486
3.72653
3.90012
4.02442
4.11577
4.18394
4.23502
4.27297
4.30036
4.31889
4.32962
4.33313
4.32962
4.31889
4.30036
4.27297
4.23502
4.18394
4.11577
4.02442
3.90012
3.72653
3.47486
3.09165
2.47568
1.46372
1.97982e-15
0
2.49393
3.51196
3.95743
4.19547
4.34042
4.43631
4.50329
4.55173
4.58749
4.6141
4.63377
4.64791
4.65745
4.66297
4.66477
4.66297
4.65745
4.64791
4.63377
4.6141
4.58749
4.55173
4.50329
4.43631
4.34042
4.19547
3.95743
3.51196
2.49393
4.12728e-15
0
5.17364
5.07006
4.8972
5.0406
5.03086
4.94587
5.02423
5.02108
4.96066
5.01856
5.01728
4.96653
5.01633
5.01597
4.96817
5.01597
5.01633
4.96653
5.01728
5.01856
4.96066
5.02108
5.02423
4.94587
5.03086
5.0406
4.8972
5.07006
5.17364
4.01194e-14
