# vtk DataFile Version 3.0
Poisson equation solution
ASCII
DATASET STRUCTURED_GRID
DIMENSIONS 31 31 1
POINTS 961 float
0 0 0
0.0333333 0 0
0.0666667 0 0
0.1 0 0
0.133333 0 0
0.166667 0 0
0.2 0 0
0.233333 0 0
0.266667 0 0
0.3 0 0
0.333333 0 0
0.366667 0 0
0.4 0 0
0.433333 0 0
0.466667 0 0
0.5 0 0
0.533333 0 0
0.566667 0 0
0.6 0 0
0.633333 0 0
0.666667 0 0
0.7 0 0
0.733333 0 0
0.766667 0 0
0.8 0 0
0.833333 0 0
0.866667 0 0
0.9 0 0
0.933333 0 0
0.966667 0 0
1 0 0
0 0.0333333 0
0.0333333 0.0333333 0
0.0666667 0.0333333 0
0.1 0.0333333 0
0.133333 0.0333333 0
0.166667 0.0333333 0
0.2 0.0333333 0
0.233333 0.0333333 0
0.266667 0.0333333 0
0.3 0.0333333 0
0.333333 0.0333333 0
0.366667 0.0333333 0
0.4 0.0333333 0
0.433333 0.0333333 0
0.466667 0.0333333 0
0.5 0.0333333 0
0.533333 0.0333333 0
0.566667 0.0333333 0
0.6 0.0333333 0
0.633333 0.0333333 0
0.666667 0.0333333 0
0.7 0.0333333 0
0.733333 0.0333333 0
0.766667 0.0333333 0
0.8 0.0333333 0
0.833333 0.0333333 0
0.866667 0.0333333 0
0.9 0.0333333 0
0.933333 0.0333333 0
0.966667 0.0333333 0
1 0.0333333 0
0 0.0666667 0
0.0333333 0.0666667 0
0.0666667 0.0666667 0
0.1 0.0666667 0
0.133333 0.0666667 0
0.166667 0.0666667 0
0.2 0.0666667 0
0.233333 0.0666667 0
0.266667 0.0666667 0
0.3 0.0666667 0
0.333333 0.0666667 0
0.366667 0.0666667 0
0.4 0.0666667 0
0.433333 0.0666667 0
0.466667 0.0666667 0
0.5 0.0666667 0
0.533333 0.0666667 0
0.566667 0.0666667 0
0.6 0.0666667 0
0.633333 0.0666667 0
0.666667 0.0666667 0
0.7 0.0666667 0
0.733333 0.0666667 0
0.766667 0.0666667 0
0.8 0.0666667 0
0.833333 0.0666667 0
0.866667 0.0666667 0
0.9 0.0666667 0
0.933333 0.0666667 0
0.966667 0.0666667 0
1 0.0666667 0
0 0.1 0
0.0333333 0.1 0
0.0666667 0.1 0
0.1 0.1 0
0.133333 0.1 0
0.166667 0.1 0
0.2 0.1 0
0.233333 0.1 0
0.266667 0.1 0
0.3 0.1 0
0.333333 0.1 0
0.366667 0.1 0
0.4 0.1 0
0.433333 0.1 0
0.466667 0.1 0
0.5 0.1 0
0.533333 0.1 0
0.566667 0.1 0
0.6 0.1 0
0.633333 0.1 0
0.666667 0.1 0
0.7 0.1 0
0.733333 0.1 0
0.766667 0.1 0
0.8 0.1 0
0.833333 0.1 0
0.866667 0.1 0
0.9 0.1 0
0.933333 0.1 0
0.966667 0.1 0
1 0.1 0
0 0.133333 0
0.0333333 0.133333 0
0.0666667 0.133333 0
0.1 0.133333 0
0.133333 0.133333 0
0.166667 0.133333 0
0.2 0.133333 0
0.233333 0.133333 0
0.266667 0.133333 0
0.3 0.133333 0
0.333333 0.133333 0
0.366667 0.133333 0
0.4 0.133333 0
0.433333 0.133333 0
0.466667 0.133333 0
0.5 0.133333 0
0.533333 0.133333 0
0.566667 0.133333 0
0.6 0.133333 0
0.633333 0.133333 0
0.666667 0.133333 0
0.7 0.133333 0
0.733333 0.133333 0
0.766667 0.133333 0
0.8 0.133333 0
0.833333 0.133333 0
0.866667 0.133333 0
0.9 0.133333 0
0.933333 0.133333 0
0.966667 0.133333 0
1 0.133333 0
0 0.166667 0
0.0333333 0.166667 0
0.0666667 0.166667 0
0.1 0.166667 0
0.133333 0.166667 0
0.166667 0.166667 0
0.2 0.166667 0
0.233333 0.166667 0
0.266667 0.166667 0
0.3 0.166667 0
0.333333 0.166667 0
0.366667 0.166667 0
0.4 0.166667 0
0.433333 0.166667 0
0.466667 0.166667 0
0.5 0.166667 0
0.533333 0.166667 0
0.566667 0.166667 0
0.6 0.166667 0
0.633333 0.166667 0
0.666667 0.166667 0
0.7 0.166667 0
0.733333 0.166667 0
0.766667 0.166667 0
0.8 0.166667 0
0.833333 0.166667 0
0.866667 0.166667 0
0.9 0.166667 0
0.933333 0.166667 0
0.966667 0.166667 0
1 0.166667 0
0 0.2 0
0.0333333 0.2 0
0.0666667 0.2 0
0.1 0.2 0
0.133333 0.2 0
0.166667 0.2 0
0.2 0.2 0
0.233333 0.2 0
0.266667 0.2 0
0.3 0.2 0
0.333333 0.2 0
0.366667 0.2 0
0.4 0.2 0
0.433333 0.2 0
0.466667 0.2 0
0.5 0.2 0
0.533333 0.2 0
0.566667 0.2 0
0.6 0.2 0
0.633333 0.2 0
0.666667 0.2 0
0.7 0.2 0
0.733333 0.2 0
0.766667 0.2 0
0.8 0.2 0
0.833333 0.2 0
0.866667 0.2 0
0.9 0.2 0
0.933333 0.2 0
0.966667 0.2 0
1 0.2 0
0 0.233333 0
0.0333333 0.233333 0
0.0666667 0.233333 0
0.1 0.233333 0
0.133333 0.233333 0
0.166667 0.233333 0
0.2 0.233333 0
0.233333 0.233333 0
0.266667 0.233333 0
0.3 0.233333 0
0.333333 0.233333 0
0.366667 0.233333 0
0.4 0.233333 0
0.433333 0.233333 0
0.466667 0.233333 0
0.5 0.233333 0
0.533333 0.233333 0
0.566667 0.233333 0
0.6 0.233333 0
0.633333 0.233333 0
0.666667 0.233333 0
0.7 0.233333 0
0.733333 0.233333 0
0.766667 0.233333 0
0.8 0.233333 0
0.833333 0.233333 0
0.866667 0.233333 0
0.9 0.233333 0
0.933333 0.233333 0
0.966667 0.233333 0
1 0.233333 0
0 0.266667 0
0.0333333 0.266667 0
0.0666667 0.266667 0
0.1 0.266667 0
0.133333 0.266667 0
0.166667 0.266667 0
0.2 0.266667 0
0.233333 0.266667 0
0.266667 0.266667 0
0.3 0.266667 0
0.333333 0.266667 0
0.366667 0.266667 0
0.4 0.266667 0
0.433333 0.266667 0
0.466667 0.266667 0
0.5 0.266667 0
0.533333 0.266667 0
0.566667 0.266667 0
0.6 0.266667 0
0.633333 0.266667 0
0.666667 0.266667 0
0.7 0.266667 0
0.733333 0.266667 0
0.766667 0.266667 0
0.8 0.266667 0
0.833333 0.266667 0
0.866667 0.266667 0
0.9 0.266667 0
0.933333 0.266667 0
0.966667 0.266667 0
1 0.266667 0
0 0.3 0
0.0333333 0.3 0
0.0666667 0.3 0
0.1 0.3 0
0.133333 0.3 0
0.166667 0.3 0
0.2 0.3 0
0.233333 0.3 0
0.266667 0.3 0
0.3 0.3 0
0.333333 0.3 0
0.366667 0.3 0
0.4 0.3 0
0.433333 0.3 0
0.466667 0.3 0
0.5 0.3 0
0.533333 0.3 0
0.566667 0.3 0
0.6 0.3 0
0.633333 0.3 0
0.666667 0.3 0
0.7 0.3 0
0.733333 0.3 0
0.766667 0.3 0
0.8 0.3 0
0.833333 0.3 0
0.866667 0.3 0
0.9 0.3 0
0.933333 0.3 0
0.966667 0.3 0
1 0.3 0
0 0.333333 0
0.0333333 0.333333 0
0.0666667 0.333333 0
0.1 0.333333 0
0.133333 0.333333 0
0.166667 0.333333 0
0.2 0.333333 0
0.233333 0.333333 0
0.266667 0.333333 0
0.3 0.333333 0
0.333333 0.333333 0
0.366667 0.333333 0
0.4 0.333333 0
0.433333 0.333333 0
0.466667 0.333333 0
0.5 0.333333 0
0.533333 0.333333 0
0.566667 0.333333 0
0.6 0.333333 0
0.633333 0.333333 0
0.666667 0.333333 0
0.7 0.333333 0
0.733333 0.333333 0
0.766667 0.333333 0
0.8 0.333333 0
0.833333 0.333333 0
0.866667 0.333333 0
0.9 0.333333 0
0.933333 0.333333 0
0.966667 0.333333 0
1 0.333333 0
0 0.366667 0
0.0333333 0.366667 0
0.0666667 0.366667 0
0.1 0.366667 0
0.133333 0.366667 0
0.166667 0.366667 0
0.2 0.366667 0
0.233333 0.366667 0
0.266667 0.366667 0
0.3 0.366667 0
0.333333 0.366667 0
0.366667 0.366667 0
0.4 0.366667 0
0.433333 0.366667 0
0.466667 0.366667 0
0.5 0.366667 0
0.533333 0.366667 0
0.566667 0.366667 0
0.6 0.366667 0
0.633333 0.366667 0
0.666667 0.366667 0
0.7 0.366667 0
0.733333 0.366667 0
0.766667 0.366667 0
0.8 0.366667 0
0.833333 0.366667 0
0.866667 0.366667 0
0.9 0.366667 0
0.933333 0.366667 0
0.966667 0.366667 0
1 0.366667 0
0 0.4 0
0.0333333 0.4 0
0.0666667 0.4 0
0.1 0.4 0
0.133333 0.4 0
0.166667 0.4 0
0.2 0.4 0
0.233333 0.4 0
0.266667 0.4 0
0.3 0.4 0
0.333333 0.4 0
0.366667 0.4 0
0.4 0.4 0
0.433333 0.4 0
0.466667 0.4 0
0.5 0.4 0
0.533333 0.4 0
0.566667 0.4 0
0.6 0.4 0
0.633333 0.4 0
0.666667 0.4 0
0.7 0.4 0
0.733333 0.4 0
0.766667 0.4 0
0.8 0.4 0
0.833333 0.4 0
0.866667 0.4 0
0.9 0.4 0
0.933333 0.4 0
0.966667 0.4 0
1 0.4 0
0 0.433333 0
0.0333333 0.433333 0
0.0666667 0.433333 0
0.1 0.433333 0
0.133333 0.433333 0
0.166667 0.433333 0
0.2 0.433333 0
0.233333 0.433333 0
0.266667 0.433333 0
0.3 0.433333 0
0.333333 0.433333 0
0.366667 0.433333 0
0.4 0.433333 0
0.433333 0.433333 0
0.466667 0.433333 0
0.5 0.433333 0
0.533333 0.433333 0
0.566667 0.433333 0
0.6 0.433333 0
0.633333 0.433333 0
0.666667 0.433333 0
0.7 0.433333 0
0.733333 0.433333 0
0.766667 0.433333 0
0.8 0.433333 0
0.833333 0.433333 0
0.866667 0.433333 0
0.9 0.433333 0
0.933333 0.433333 0
0.966667 0.433333 0
1 0.433333 0
0 0.466667 0
0.0333333 0.466667 0
0.0666667 0.466667 0
0.1 0.466667 0
0.133333 0.466667 0
0.166667 0.466667 0
0.2 0.466667 0
0.233333 0.466667 0
0.266667 0.466667 0
0.3 0.466667 0
0.333333 0.466667 0
0.366667 0.466667 0
0.4 0.466667 0
0.433333 0.466667 0
0.466667 0.466667 0
0.5 0.466667 0
0.533333 0.466667 0
0.566667 0.466667 0
0.6 0.466667 0
0.633333 0.466667 0
0.666667 0.466667 0
0.7 0.466667 0
0.733333 0.466667 0
0.766667 0.466667 0
0.8 0.466667 0
0.833333 0.466667 0
0.866667 0.466667 0
0.9 0.466667 0
0.933333 0.466667 0
0.966667 0.466667 0
1 0.466667 0
0 0.5 0
0.0333333 0.5 0
0.0666667 0.5 0
0.1 0.5 0
0.133333 0.5 0
0.166667 0.5 0
0.2 0.5 0
0.233333 0.5 0
0.266667 0.5 0
0.3 0.5 0
0.333333 0.5 0
0.366667 0.5 0
0.4 0.5 0
0.433333 0.5 0
0.466667 0.5 0
0.5 0.5 0
0.533333 0.5 0
0.566667 0.5 0
0.6 0.5 0
0.633333 0.5 0
0.666667 0.5 0
0.7 0.5 0
0.733333 0.5 0
0.766667 0.5 0
0.8 0.5 0
0.833333 0.5 0
0.866667 0.5 0
0.9 0.5 0
0.933333 0.5 0
0.966667 0.5 0
1 0.5 0
0 0.533333 0
0.0333333 0.533333 0
0.0666667 0.533333 0
0.1 0.533333 0
0.133333 0.533333 0
0.166667 0.533333 0
0.2 0.533333 0
0.233333 0.533333 0
0.266667 0.533333 0
0.3 0.533333 0
0.333333 0.533333 0
0.366667 0.533333 0
0.4 0.533333 0
0.433333 0.533333 0
0.466667 0.533333 0
0.5 0.533333 0
0.533333 0.533333 0
0.566667 0.533333 0
0.6 0.533333 0
0.633333 0.533333 0
0.666667 0.533333 0
0.7 0.533333 0
0.733333 0.533333 0
0.766667 0.533333 0
0.8 0.533333 0
0.833333 0.533333 0
0.866667 0.533333 0
0.9 0.533333 0
0.933333 0.533333 0
0.966667 0.533333 0
1 0.533333 0
0 0.566667 0
0.0333333 0.566667 0
0.0666667 0.566667 0
0.1 0.566667 0
0.133333 0.566667 0
0.166667 0.566667 0
0.2 0.566667 0
0.233333 0.566667 0
0.266667 0.566667 0
0.3 0.566667 0
0.333333 0.566667 0
0.366667 0.566667 0
0.4 0.566667 0
0.433333 0.566667 0
0.466667 0.566667 0
0.5 0.566667 0
0.533333 0.566667 0
0.566667 0.566667 0
0.6 0.566667 0
0.633333 0.566667 0
0.666667 0.566667 0
0.7 0.566667 0
0.733333 0.566667 0
0.766667 0.566667 0
0.8 0.566667 0
0.833333 0.566667 0
0.866667 0.566667 0
0.9 0.566667 0
0.933333 0.566667 0
0.966667 0.566667 0
1 0.566667 0
0 0.6 0
0.0333333 0.6 0
0.0666667 0.6 0
0.1 0.6 0
0.133333 0.6 0
0.166667 0.6 0
0.2 0.6 0
0.233333 0.6 0
0.266667 0.6 0
0.3 0.6 0
0.333333 0.6 0
0.366667 0.6 0
0.4 0.6 0
0.433333 0.6 0
0.466667 0.6 0
0.5 0.6 0
0.533333 0.6 0
0.566667 0.6 0
0.6 0.6 0
0.633333 0.6 0
0.666667 0.6 0
0.7 0.6 0
0.733333 0.6 0
0.766667 0.6 0
0.8 0.6 0
0.833333 0.6 0
0.866667 0.6 0
0.9 0.6 0
0.933333 0.6 0
0.966667 0.6 0
1 0.6 0
0 0.633333 0
0.0333333 0.633333 0
0.0666667 0.633333 0
0.1 0.633333 0
0.133333 0.633333 0
0.166667 0.633333 0
0.2 0.633333 0
0.233333 0.633333 0
0.266667 0.633333 0
0.3 0.633333 0
0.333333 0.633333 0
0.366667 0.633333 0
0.4 0.633333 0
0.433333 0.633333 0
0.466667 0.633333 0
0.5 0.633333 0
0.533333 0.633333 0
0.566667 0.633333 0
0.6 0.633333 0
0.633333 0.633333 0
0.666667 0.633333 0
0.7 0.633333 0
0.733333 0.633333 0
0.766667 0.633333 0
0.8 0.633333 0
0.833333 0.633333 0
0.866667 0.633333 0
0.9 0.633333 0
0.933333 0.633333 0
0.966667 0.633333 0
1 0.633333 0
0 0.666667 0
0.0333333 0.666667 0
0.0666667 0.666667 0
0.1 0.666667 0
0.133333 0.666667 0
0.166667 0.666667 0
0.2 0.666667 0
0.233333 0.666667 0
0.266667 0.666667 0
0.3 0.666667 0
0.333333 0.666667 0
0.366667 0.666667 0
0.4 0.666667 0
0.433333 0.666667 0
0.466667 0.666667 0
0.5 0.666667 0
0.533333 0.666667 0
0.566667 0.666667 0
0.6 0.666667 0
0.633333 0.666667 0
0.666667 0.666667 0
0.7 0.666667 0
0.733333 0.666667 0
0.766667 0.666667 0
0.8 0.666667 0
0.833333 0.666667 0
0.866667 0.666667 0
0.9 0.666667 0
0.933333 0.666667 0
0.966667 0.666667 0
1 0.666667 0
0 0.7 0
0.0333333 0.7 0
0.0666667 0.7 0
0.1 0.7 0
0.133333 0.7 0
0.166667 0.7 0
0.2 0.7 0
0.233333 0.7 0
0.266667 0.7 0
0.3 0.7 0
0.333333 0.7 0
0.366667 0.7 0
0.4 0.7 0
0.433333 0.7 0
0.466667 0.7 0
0.5 0.7 0
0.533333 0.7 0
0.566667 0.7 0
0.6 0.7 0
0.633333 0.7 0
0.666667 0.7 0
0.7 0.7 0
0.733333 0.7 0
0.766667 0.7 0
0.8 0.7 0
0.833333 0.7 0
0.866667 0.7 0
0.9 0.7 0
0.933333 0.7 0
0.966667 0.7 0
1 0.7 0
0 0.733333 0
0.0333333 0.733333 0
0.0666667 0.733333 0
0.1 0.733333 0
0.133333 0.733333 0
0.166667 0.733333 0
0.2 0.733333 0
0.233333 0.733333 0
0.266667 0.733333 0
0.3 0.733333 0
0.333333 0.733333 0
0.366667 0.733333 0
0.4 0.733333 0
0.433333 0.733333 0
0.466667 0.733333 0
0.5 0.733333 0
0.533333 0.733333 0
0.566667 0.733333 0
0.6 0.733333 0
0.633333 0.733333 0
0.666667 0.733333 0
0.7 0.733333 0
0.733333 0.733333 0
0.766667 0.733333 0
0.8 0.733333 0
0.833333 0.733333 0
0.866667 0.733333 0
0.9 0.733333 0
0.933333 0.733333 0
0.966667 0.733333 0
1 0.733333 0
0 0.766667 0
0.0333333 0.766667 0
0.0666667 0.766667 0
0.1 0.766667 0
0.133333 0.766667 0
0.166667 0.766667 0
0.2 0.766667 0
0.233333 0.766667 0
0.266667 0.766667 0
0.3 0.766667 0
0.333333 0.766667 0
0.366667 0.766667 0
0.4 0.766667 0
0.433333 0.766667 0
0.466667 0.766667 0
0.5 0.766667 0
0.533333 0.766667 0
0.566667 0.766667 0
0.6 0.766667 0
0.633333 0.766667 0
0.666667 0.766667 0
0.7 0.766667 0
0.733333 0.766667 0
0.766667 0.766667 0
0.8 0.766667 0
0.833333 0.766667 0
0.866667 0.766667 0
0.9 0.766667 0
0.933333 0.766667 0
0.966667 0.766667 0
1 0.766667 0
0 0.8 0
0.0333333 0.8 0
0.0666667 0.8 0
0.1 0.8 0
0.133333 0.8 0
0.166667 0.8 0
0.2 0.8 0
0.233333 0.8 0
0.266667 0.8 0
0.3 0.8 0
0.333333 0.8 0
0.366667 0.8 0
0.4 0.8 0
0.433333 0.8 0
0.466667 0.8 0
0.5 0.8 0
0.533333 0.8 0
0.566667 0.8 0
0.6 0.8 0
0.633333 0.8 0
0.666667 0.8 0
0.7 0.8 0
0.733333 0.8 0
0.766667 0.8 0
0.8 0.8 0
0.833333 0.8 0
0.866667 0.8 0
0.9 0.8 0
0.933333 0.8 0
0.966667 0.8 0
1 0.8 0
0 0.833333 0
0.0333333 0.833333 0
0.0666667 0.833333 0
0.1 0.833333 0
0.133333 0.833333 0
0.166667 0.833333 0
0.2 0.833333 0
0.233333 0.833333 0
0.266667 0.833333 0
0.3 0.833333 0
0.333333 0.833333 0
0.366667 0.833333 0
0.4 0.833333 0
0.433333 0.833333 0
0.466667 0.833333 0
0.5 0.833333 0
0.533333 0.833333 0
0.566667 0.833333 0
0.6 0.833333 0
0.633333 0.833333 0
0.666667 0.833333 0
0.7 0.833333 0
0.733333 0.833333 0
0.766667 0.833333 0
0.8 0.833333 0
0.833333 0.833333 0
0.866667 0.833333 0
0.9 0.833333 0
0.933333 0.833333 0
0.966667 0.833333 0
1 0.833333 0
0 0.866667 0
0.0333333 0.866667 0
0.0666667 0.866667 0
0.1 0.866667 0
0.133333 0.866667 0
0.166667 0.866667 0
0.2 0.866667 0
0.233333 0.866667 0
0.266667 0.866667 0
0.3 0.866667 0
0.333333 0.866667 0
0.366667 0.866667 0
0.4 0.866667 0
0.433333 0.866667 0
0.466667 0.866667 0
0.5 0.866667 0
0.533333 0.866667 0
0.566667 0.866667 0
0.6 0.866667 0
0.633333 0.866667 0
0.666667 0.866667 0
0.7 0.866667 0
0.733333 0.866667 0
0.766667 0.866667 0
0.8 0.866667 0
0.833333 0.866667 0
0.866667 0.866667 0
0.9 0.866667 0
0.933333 0.866667 0
0.966667 0.866667 0
1 0.866667 0
0 0.9 0
0.0333333 0.9 0
0.0666667 0.9 0
0.1 0.9 0
0.133333 0.9 0
0.166667 0.9 0
0.2 0.9 0
0.233333 0.9 0
0.266667 0.9 0
0.3 0.9 0
0.333333 0.9 0
0.366667 0.9 0
0.4 0.9 0
0.433333 0.9 0
0.466667 0.9 0
0.5 0.9 0
0.533333 0.9 0
0.566667 0.9 0
0.6 0.9 0
0.633333 0.9 0
0.666667 0.9 0
0.7 0.9 0
0.733333 0.9 0
0.766667 0.9 0
0.8 0.9 0
0.833333 0.9 0
0.866667 0.9 0
0.9 0.9 0
0.933333 0.9 0
0.966667 0.9 0
1 0.9 0
0 0.933333 0
0.0333333 0.933333 0
0.0666667 0.933333 0
0.1 0.933333 0
0.133333 0.933333 0
0.166667 0.933333 0
0.2 0.933333 0
0.233333 0.933333 0
0.266667 0.933333 0
0.3 0.933333 0
0.333333 0.933333 0
0.366667 0.933333 0
0.4 0.933333 0
0.433333 0.933333 0
0.466667 0.933333 0
0.5 0.933333 0
0.533333 0.933333 0
0.566667 0.933333 0
0.6 0.933333 0
0.633333 0.933333 0
0.666667 0.933333 0
0.7 0.933333 0
0.733333 0.933333 0
0.766667 0.933333 0
0.8 0.933333 0
0.833333 0.933333 0
0.866667 0.933333 0
0.9 0.933333 0
0.933333 0.933333 0
0.966667 0.933333 0
1 0.933333 0
0 0.966667 0
0.0333333 0.966667 0
0.0666667 0.966667 0
0.1 0.966667 0
0.133333 0.966667 0
0.166667 0.966667 0
0.2 0.966667 0
0.233333 0.966667 0
0.266667 0.966667 0
0.3 0.966667 0
0.333333 0.966667 0
0.366667 0.966667 0
0.4 0.966667 0
0.433333 0.966667 0
0.466667 0.966667 0
0.5 0.966667 0
0.533333 0.966667 0
0.566667 0.966667 0
0.6 0.966667 0
0.633333 0.966667 0
0.666667 0.966667 0
0.7 0.966667 0
0.733333 0.966667 0
0.766667 0.966667 0
0.8 0.966667 0
0.833333 0.966667 0
0.866667 0.966667 0
0.9 0.966667 0
0.933333 0.966667 0
0.966667 0.966667 0
1 0.966667 0
0 1 0
0.0333333 1 0
0.0666667 1 0
0.1 1 0
0.133333 1 0
0.166667 1 0
0.2 1 0
0.233333 1 0
0.266667 1 0
0.3 1 0
0.333333 1 0
0.366667 1 0
0.4 1 0
0.433333 1 0
0.466667 1 0
0.5 1 0
0.533333 1 0
0.566667 1 0
0.6 1 0
0.633333 1 0
0.666667 1 0
0.7 1 0
0.733333 1 0
0.766667 1 0
0.8 1 0
0.833333 1 0
0.866667 1 0
0.9 1 0
0.933333 1 0
0.966667 1 0
1 1 0
POINT_DATA 961
SCALARS solution float 1
LOOKUP_TABLE default
0
0
0
0
0
0
0
0
0
0
0
0
0
0
0
0
0
0
0
0
0
0
0
0
0
0
0
0
0
0
0
0
1.99718e-05
3.94954e-05
5.81514e-05
7.55748e-05
9.14756e-05
0.000105651
0.000117988
0.000128463
0.000137125
0.000144079
0.00014947
0.000153452
0.000156173
0.000157753
0.000158271
0.000157753
0.000156173
0.000153452
0.00014947
0.000144079
0.000137125
0.000128463
0.000117988
0.000105651
9.14756e-05
7.55748e-05
5.81514e-05
3.94954e-05
1.99718e-05
7.12268e-18
0
4.02221e-05
7.95251e-05
0.00011705
0.000152052
0.000183942
0.00021231
0.00023694
0.000257789
0.000274973
0.000288722
0.00029934
0.000307157
0.000312481
0.000315566
0.000316576
0.000315566
0.000312481
0.000307157
0.00029934
0.000288722
0.000274973
0.000257789
0.00023694
0.00021231
0.000183942
0.000152052
0.00011705
7.95251e-05
4.02221e-05
1.43271e-17
0
6.10453e-05
0.000120653
0.000177484
0.00023038
0.000278435
0.00032103
0.000357849
0.000388861
0.000414275
0.000434484
0.00044999
0.000461334
0.000469019
0.000473452
0.0004749
0.000473452
0.000469019
0.000461334
0.00044999
0.000434484
0.000414275
0.000388861
0.000357849
0.00032103
0.000278435
0.00023038
0.000177484
0.000120653
6.10453e-05
2.16964e-17
0
8.27696e-05
0.000163508
0.000240326
0.000311605
0.000376089
0.000432946
0.00048178
0.000522604
0.000555774
0.000581903
0.000601755
0.000616136
0.000625793
0.000631328
0.000633128
0.000631328
0.000625793
0.000616136
0.000601755
0.000581903
0.000555774
0.000522604
0.00048178
0.000432946
0.000376089
0.000311605
0.000240326
0.000163508
8.27696e-05
2.93161e-17
0
0.000105777
0.000208817
0.000306585
0.000396924
0.00047819
0.000549332
0.0006099
0.000660006
0.00070023
0.00073149
0.000754898
0.000771608
0.000782679
0.000788958
0.000790988
0.000788958
0.000782679
0.000771608
0.000754898
0.00073149
0.00070023
0.000660006
0.0006099
0.000549332
0.00047819
0.000396924
0.000306585
0.000208817
0.000105777
3.72758e-17
0
0.00013053
0.000257459
0.000377466
0.000487758
0.000586248
0.000671656
0.000743524
0.000802144
0.000848426
0.000883711
0.00090958
0.000927643
0.000939363
0.000945899
0.000947992
0.000945899
0.000939363
0.000927643
0.00090958
0.000883711
0.000848426
0.000802144
0.000743524
0.000671656
0.000586248
0.000487758
0.000377466
0.000257459
0.00013053
4.56707e-17
0
0.0001576
0.000310517
0.000454454
0.000585839
0.000702073
0.00080165
0.000884166
0.000950211
0.00100117
0.00103897
0.00106582
0.00108393
0.00109528
0.00110143
0.00110336
0.00110143
0.00109528
0.00108393
0.00106582
0.00103897
0.00100117
0.000950211
0.000884166
0.00080165
0.000702073
0.000585839
0.000454454
0.000310517
0.0001576
5.46035e-17
0
0.000187718
0.000369366
0.00053941
0.000693318
0.000827886
0.000941395
0.0010336
0.00110554
0.00115929
0.00119758
0.00122345
0.00123989
0.00124954
0.00125446
0.00125595
0.00125446
0.00124954
0.00123989
0.00122345
0.00119758
0.00115929
0.00110554
0.0010336
0.000941395
0.000827886
0.000693318
0.00053941
0.000369366
0.000187718
6.41865e-17
0
0.000221826
0.000435774
0.000634717
0.000812914
0.00096645
0.00109343
0.0011939
0.00126962
0.00132362
0.00135972
0.00138205
0.0013946
0.00140085
0.00140348
0.00140416
0.00140348
0.00140085
0.0013946
0.00138205
0.00135972
0.00132362
0.00126962
0.0011939
0.00109343
0.00096645
0.000812914
0.000634717
0.000435774
0.000221826
7.45445e-17
0
0.000261163
0.000512054
0.000743459
0.000948102
0.00112123
0.00126085
0.00136755
0.00144414
0.00149498
0.00152536
0.00154086
0.0015467
0.00154741
0.00154641
0.00154584
0.00154641
0.00154741
0.0015467
0.00154086
0.00152536
0.00149498
0.00144414
0.00136755
0.00126085
0.00112123
0.000948102
0.000743459
0.000512054
0.000261163
8.58181e-17
0
0.00030738
0.000601269
0.000869682
0.00110338
0.00129664
0.0014475
0.00155749
0.00163094
0.00167409
0.0016942
0.00169866
0.00169428
0.00168682
0.00168056
0.00167818
0.00168056
0.00168682
0.00169428
0.00169866
0.0016942
0.00167409
0.00163094
0.00155749
0.0014475
0.00129664
0.00110338
0.000869682
0.000601269
0.00030738
9.81685e-17
0
0.000362708
0.000707528
0.00101875
0.00128459
0.00149825
0.00165811
0.00176716
0.00183201
0.00186151
0.0018655
0.00185367
0.00183476
0.00181594
0.0018025
0.00179766
0.0018025
0.00181594
0.00183476
0.00185367
0.0018655
0.00186151
0.00183201
0.00176716
0.00165811
0.00149825
0.00128459
0.00101875
0.000707528
0.000362708
1.11783e-16
0
0.000430204
0.000836414
0.00119784
0.00149943
0.00173322
0.00189845
0.00200053
0.00204936
0.0020574
0.00203787
0.00200334
0.00196475
0.00193087
0.00190801
0.00189997
0.00190801
0.00193087
0.00196475
0.00200334
0.00203787
0.0020574
0.00204936
0.00200053
0.00189845
0.00173322
0.00149943
0.00119784
0.000836414
0.000430204
1.26884e-16
0
0.000514119
0.00099562
0.0014167
0.00175805
0.00201065
0.00217555
0.00226201
0.00228479
0.00226129
0.00220906
0.00214412
0.0020799
0.00202678
0.00199206
0.00198001
0.00199206
0.00202678
0.0020799
0.00214412
0.00220906
0.00226129
0.00228479
0.00226201
0.00217555
0.00201065
0.00175805
0.0014167
0.00099562
0.000514119
1.43739e-16
0
0.000620475
0.00119591
0.00168866
0.00207394
0.00234212
0.00249776
0.00255626
0.00253949
0.00247153
0.00237545
0.0022712
0.00217477
0.002098
0.0020489
0.00203203
0.0020489
0.002098
0.00217477
0.0022712
0.00237545
0.00247153
0.00253949
0.00255626
0.00249776
0.00234212
0.00207394
0.00168866
0.00119591
0.000620475
1.62676e-16
0
0.000757967
0.00145259
0.00203223
0.00246513
0.00274225
0.00287468
0.00288761
0.00281326
0.00268469
0.0025316
0.00237822
0.00224279
0.00213807
0.00207225
0.00204983
0.00207225
0.00213807
0.00224279
0.00237822
0.0025316
0.00268469
0.00281326
0.00288761
0.00287468
0.00274225
0.00246513
0.00203223
0.00145259
0.000757967
1.84108e-16
0
0.00093944
0.00178791
0.00247345
0.0029558
0.00322923
0.00331672
0.00325904
0.00310335
0.00289442
0.00266957
0.00245698
0.00227626
0.00214003
0.00205576
0.00202728
0.00205576
0.00214003
0.00227626
0.00245698
0.00266957
0.00289442
0.00310335
0.00325904
0.00331672
0.00322923
0.0029558
0.00247345
0.00178791
0.00093944
2.08565e-16
0
0.00118438
0.00223484
0.00304951
0.00357835
0.003825
0.00383381
0.00367021
0.00340256
0.00309017
0.00277815
0.0024973
0.00226668
0.002097
0.00199366
0.001959
0.00199366
0.002097
0.00226668
0.0024973
0.00277815
0.00309017
0.00340256
0.00367021
0.00383381
0.003825
0.00357835
0.00304951
0.00223484
0.00118438
2.36741e-16
0
0.00152325
0.00284358
0.00381423
0.00437602
0.00455465
0.00443271
0.00411419
0.00369649
0.00325546
0.00284231
0.00248719
0.00220539
0.00200307
0.0018818
0.00184145
0.0018818
0.00200307
0.00220539
0.00248719
0.00284231
0.00325546
0.00369649
0.00411419
0.00443271
0.00455465
0.00437602
0.00381423
0.00284358
0.00152325
2.69578e-16
0
0.00200542
0.00369268
0.00484659
0.00540542
0.00544352
0.00511135
0.00457199
0.00395988
0.00336632
0.00284311
0.00241375
0.00208481
0.00185462
0.00171894
0.00167417
0.00171894
0.00185462
0.00208481
0.00241375
0.00284311
0.00336632
0.00395988
0.00457199
0.00511135
0.00544352
0.00540542
0.00484659
0.00369268
0.00200542
3.08385e-16
0
0.00271427
0.00490895
0.00626363
0.00673745
0.0065092
0.00584846
0.00500448
0.00415258
0.00339054
0.00275898
0.00226506
0.00190041
0.00165204
0.00150822
0.00146118
0.00150822
0.00165204
0.00190041
0.00226506
0.00275898
0.00339054
0.00415258
0.00500448
0.00584846
0.0065092
0.00673745
0.00626363
0.00490895
0.00271427
3.5506e-16
0
0.00379764
0.00670427
0.00823879
0.00845148
0.00774255
0.00658528
0.00534209
0.00421698
0.00328982
0.00256937
0.00203376
0.00165341
0.0014016
0.00125848
0.00121209
0.00125848
0.0014016
0.00165341
0.00203376
0.00256937
0.00328982
0.00421698
0.00534209
0.00658528
0.00774255
0.00845148
0.00823879
0.00670427
0.00379764
4.12467e-16
0
0.00553351
0.00944557
0.0110234
0.0106087
0.00906687
0.00719781
0.00547606
0.00408161
0.0030274
0.00226185
0.00172199
0.00135376
0.00111699
0.000984948
0.000942555
0.000984948
0.00111699
0.00135376
0.00172199
0.00226185
0.0030274
0.00408161
0.00547606
0.00719781
0.00906687
0.0106087
0.0110234
0.00944557
0.00553351
4.8519e-16
0
0.00848275
0.0137909
0.0149516
0.0131683
0.0102591
0.00746574
0.00526382
0.00367882
0.00258402
0.00184254
0.00134698
0.00102235
0.000819614
0.000708674
0.000673386
0.000708674
0.000819614
0.00102235
0.00134698
0.00184254
0.00258402
0.00367882
0.00526382
0.00746574
0.0102591
0.0131683
0.0149516
0.0137909
0.00848275
5.81093e-16
0
0.0138808
0.0209477
0.0203427
0.0157625
0.010831
0.00707408
0.00457529
0.00298392
0.00198068
0.00134651
0.00094423
0.000690774
0.000536825
0.000454082
0.000427994
0.000454082
0.000536825
0.000690774
0.00094423
0.00134651
0.00198068
0.00298392
0.00457529
0.00707408
0.010831
0.0157625
0.0203427
0.0209477
0.0138808
7.14942e-16
0
0.0247574
0.0330981
0.026945
0.0172061
0.00996569
0.00575984
0.00340051
0.00206775
0.0012974
0.000840775
0.000564665
0.00039673
0.000297238
0.000244612
0.000228149
0.000244612
0.000297238
0.00039673
0.000564665
0.000840775
0.0012974
0.00206775
0.00340051
0.00575984
0.00996569
0.0172061
0.026945
0.0330981
0.0247574
9.17736e-16
0
0.0497327
0.053261
0.0319126
0.0147579
0.00713967
0.00364613
0.00197215
0.00112194
0.000666373
0.00041078
0.000262315
0.000174596
0.000123662
9.70607e-05
8.87897e-05
9.70607e-05
0.000123662
0.000174596
0.000262315
0.00041078
0.000666373
0.00112194
0.00197215
0.00364613
0.00713967
0.0147579
0.0319126
0.053261
0.0497327
1.26455e-15
0
0.116471
0.0800992
0.021997
0.0079412
0.00324
0.00148822
0.000745171
0.000398022
0.000222387
0.000127729
7.42529e-05
4.3242e-05
2.54481e-05
1.62181e-05
1.33571e-05
1.62181e-05
2.54481e-05
4.3242e-05
7.42529e-05
0.000127729
0.000222387
0.000398022
0.000745171
0.00148822
0.00324
0.0079412
0.021997
0.0800992
0.116471
1.97982e-15
0
0.339845
0.0221441
0.00543573
0.00150486
0.000554482
0.000231608
0.000108456
5.21387e-05
2.29564e-05
9.92357e-06
1.48661e-06
4.75586e-06
6.1572e-06
7.67053e-06
9.46763e-06
7.67053e-06
6.1572e-06
4.75586e-06
1.48661e-06
9.92357e-06
2.29564e-05
5.21387e-05
0.000108456
0.000231608
0.000554482
0.00150486
0.00543573
0.0221441
0.339845
4.12728e-15
0
0.173639
0.0700563
0.102804
0.0406036
0.0308561
0.0541283
0.0242341
0.0210771
0.0393372
0.0185582
0.017285
0.033465
0.0163292
0.0159724
0.0318278
0.0159724
0.0163292
0.033465
0.017285
0.0185582
0.0393372
0.0210771
0.0242341
0.0541283
0.0308561
0.0406036
0.102804
0.0700563
0.173639
4.01194e-14
