# vtk DataFile Version 3.0
Poisson equation solution
ASCII
DATASET STRUCTURED_GRID
DIMENSIONS 31 31 1
POINTS 961 float
0 0 0
0.0333333 0 0
0.0666667 0 0
0.1 0 0
0.133333 0 0
0.166667 0 0
0.2 0 0
0.233333 0 0
0.266667 0 0
0.3 0 0
0.333333 0 0
0.366667 0 0
0.4 0 0
0.433333 0 0
0.466667 0 0
0.5 0 0
0.533333 0 0
0.566667 0 0
0.6 0 0
0.633333 0 0
0.666667 0 0
0.7 0 0
0.733333 0 0
0.766667 0 0
0.8 0 0
0.833333 0 0
0.866667 0 0
0.9 0 0
0.933333 0 0
0.966667 0 0
1 0 0
0 0.0333333 0
0.0333333 0.0333333 0
0.0666667 0.0333333 0
0.1 0.0333333 0
0.133333 0.0333333 0
0.166667 0.0333333 0
0.2 0.0333333 0
0.233333 0.0333333 0
0.266667 0.0333333 0
0.3 0.0333333 0
0.333333 0.0333333 0
0.366667 0.0333333 0
0.4 0.0333333 0
0.433333 0.0333333 0
0.466667 0.0333333 0
0.5 0.0333333 0
0.533333 0.0333333 0
0.566667 0.0333333 0
0.6 0.0333333 0
0.633333 0.0333333 0
0.666667 0.0333333 0
0.7 0.0333333 0
0.733333 0.0333333 0
0.766667 0.0333333 0
0.8 0.0333333 0
0.833333 0.0333333 0
0.866667 0.0333333 0
0.9 0.0333333 0
0.933333 0.0333333 0
0.966667 0.0333333 0
1 0.0333333 0
0 0.0666667 0
0.0333333 0.0666667 0
0.0666667 0.0666667 0
0.1 0.0666667 0
0.133333 0.0666667 0
0.166667 0.0666667 0
0.2 0.0666667 0
0.233333 0.0666667 0
0.266667 0.0666667 0
0.3 0.0666667 0
0.333333 0.0666667 0
0.366667 0.0666667 0
0.4 0.0666667 0
0.433333 0.0666667 0
0.466667 0.0666667 0
0.5 0.0666667 0
0.533333 0.0666667 0
0.566667 0.0666667 0
0.6 0.0666667 0
0.633333 0.0666667 0
0.666667 0.0666667 0
0.7 0.0666667 0
0.733333 0.0666667 0
0.766667 0.0666667 0
0.8 0.0666667 0
0.833333 0.0666667 0
0.866667 0.0666667 0
0.9 0.0666667 0
0.933333 0.0666667 0
0.966667 0.0666667 0
1 0.0666667 0
0 0.1 0
0.0333333 0.1 0
0.0666667 0.1 0
0.1 0.1 0
0.133333 0.1 0
0.166667 0.1 0
0.2 0.1 0
0.233333 0.1 0
0.266667 0.1 0
0.3 0.1 0
0.333333 0.1 0
0.366667 0.1 0
0.4 0.1 0
0.433333 0.1 0
0.466667 0.1 0
0.5 0.1 0
0.533333 0.1 0
0.566667 0.1 0
0.6 0.1 0
0.633333 0.1 0
0.666667 0.1 0
0.7 0.1 0
0.733333 0.1 0
0.766667 0.1 0
0.8 0.1 0
0.833333 0.1 0
0.866667 0.1 0
0.9 0.1 0
0.933333 0.1 0
0.966667 0.1 0
1 0.1 0
0 0.133333 0
0.0333333 0.133333 0
0.0666667 0.133333 0
0.1 0.133333 0
0.133333 0.133333 0
0.166667 0.133333 0
0.2 0.133333 0
0.233333 0.133333 0
0.266667 0.133333 0
0.3 0.133333 0
0.333333 0.133333 0
0.366667 0.133333 0
0.4 0.133333 0
0.433333 0.133333 0
0.466667 0.133333 0
0.5 0.133333 0
0.533333 0.133333 0
0.566667 0.133333 0
0.6 0.133333 0
0.633333 0.133333 0
0.666667 0.133333 0
0.7 0.133333 0
0.733333 0.133333 0
0.766667 0.133333 0
0.8 0.133333 0
0.833333 0.133333 0
0.866667 0.133333 0
0.9 0.133333 0
0.933333 0.133333 0
0.966667 0.133333 0
1 0.133333 0
0 0.166667 0
0.0333333 0.166667 0
0.0666667 0.166667 0
0.1 0.166667 0
0.133333 0.166667 0
0.166667 0.166667 0
0.2 0.166667 0
0.233333 0.166667 0
0.266667 0.166667 0
0.3 0.166667 0
0.333333 0.166667 0
0.366667 0.166667 0
0.4 0.166667 0
0.433333 0.166667 0
0.466667 0.166667 0
0.5 0.166667 0
0.533333 0.166667 0
0.566667 0.166667 0
0.6 0.166667 0
0.633333 0.166667 0
0.666667 0.166667 0
0.7 0.166667 0
0.733333 0.166667 0
0.766667 0.166667 0
0.8 0.166667 0
0.833333 0.166667 0
0.866667 0.166667 0
0.9 0.166667 0
0.933333 0.166667 0
0.966667 0.166667 0
1 0.166667 0
0 0.2 0
0.0333333 0.2 0
0.0666667 0.2 0
0.1 0.2 0
0.133333 0.2 0
0.166667 0.2 0
0.2 0.2 0
0.233333 0.2 0
0.266667 0.2 0
0.3 0.2 0
0.333333 0.2 0
0.366667 0.2 0
0.4 0.2 0
0.433333 0.2 0
0.466667 0.2 0
0.5 0.2 0
0.533333 0.2 0
0.566667 0.2 0
0.6 0.2 0
0.633333 0.2 0
0.666667 0.2 0
0.7 0.2 0
0.733333 0.2 0
0.766667 0.2 0
0.8 0.2 0
0.833333 0.2 0
0.866667 0.2 0
0.9 0.2 0
0.933333 0.2 0
0.966667 0.2 0
1 0.2 0
0 0.233333 0
0.0333333 0.233333 0
0.0666667 0.233333 0
0.1 0.233333 0
0.133333 0.233333 0
0.166667 0.233333 0
0.2 0.233333 0
0.233333 0.233333 0
0.266667 0.233333 0
0.3 0.233333 0
0.333333 0.233333 0
0.366667 0.233333 0
0.4 0.233333 0
0.433333 0.233333 0
0.466667 0.233333 0
0.5 0.233333 0
0.533333 0.233333 0
0.566667 0.233333 0
0.6 0.233333 0
0.633333 0.233333 0
0.666667 0.233333 0
0.7 0.233333 0
0.733333 0.233333 0
0.766667 0.233333 0
0.8 0.233333 0
0.833333 0.233333 0
0.866667 0.233333 0
0.9 0.233333 0
0.933333 0.233333 0
0.966667 0.233333 0
1 0.233333 0
0 0.266667 0
0.0333333 0.266667 0
0.0666667 0.266667 0
0.1 0.266667 0
0.133333 0.266667 0
0.166667 0.266667 0
0.2 0.266667 0
0.233333 0.266667 0
0.266667 0.266667 0
0.3 0.266667 0
0.333333 0.266667 0
0.366667 0.266667 0
0.4 0.266667 0
0.433333 0.266667 0
0.466667 0.266667 0
0.5 0.266667 0
0.533333 0.266667 0
0.566667 0.266667 0
0.6 0.266667 0
0.633333 0.266667 0
0.666667 0.266667 0
0.7 0.266667 0
0.733333 0.266667 0
0.766667 0.266667 0
0.8 0.266667 0
0.833333 0.266667 0
0.866667 0.266667 0
0.9 0.266667 0
0.933333 0.266667 0
0.966667 0.266667 0
1 0.266667 0
0 0.3 0
0.0333333 0.3 0
0.0666667 0.3 0
0.1 0.3 0
0.133333 0.3 0
0.166667 0.3 0
0.2 0.3 0
0.233333 0.3 0
0.266667 0.3 0
0.3 0.3 0
0.333333 0.3 0
0.366667 0.3 0
0.4 0.3 0
0.433333 0.3 0
0.466667 0.3 0
0.5 0.3 0
0.533333 0.3 0
0.566667 0.3 0
0.6 0.3 0
0.633333 0.3 0
0.666667 0.3 0
0.7 0.3 0
0.733333 0.3 0
0.766667 0.3 0
0.8 0.3 0
0.833333 0.3 0
0.866667 0.3 0
0.9 0.3 0
0.933333 0.3 0
0.966667 0.3 0
1 0.3 0
0 0.333333 0
0.0333333 0.333333 0
0.0666667 0.333333 0
0.1 0.333333 0
0.133333 0.333333 0
0.166667 0.333333 0
0.2 0.333333 0
0.233333 0.333333 0
0.266667 0.333333 0
0.3 0.333333 0
0.333333 0.333333 0
0.366667 0.333333 0
0.4 0.333333 0
0.433333 0.333333 0
0.466667 0.333333 0
0.5 0.333333 0
0.533333 0.333333 0
0.566667 0.333333 0
0.6 0.333333 0
0.633333 0.333333 0
0.666667 0.333333 0
0.7 0.333333 0
0.733333 0.333333 0
0.766667 0.333333 0
0.8 0.333333 0
0.833333 0.333333 0
0.866667 0.333333 0
0.9 0.333333 0
0.933333 0.333333 0
0.966667 0.333333 0
1 0.333333 0
0 0.366667 0
0.0333333 0.366667 0
0.0666667 0.366667 0
0.1 0.366667 0
0.133333 0.366667 0
0.166667 0.366667 0
0.2 0.366667 0
0.233333 0.366667 0
0.266667 0.366667 0
0.3 0.366667 0
0.333333 0.366667 0
0.366667 0.366667 0
0.4 0.366667 0
0.433333 0.366667 0
0.466667 0.366667 0
0.5 0.366667 0
0.533333 0.366667 0
0.566667 0.366667 0
0.6 0.366667 0
0.633333 0.366667 0
0.666667 0.366667 0
0.7 0.366667 0
0.733333 0.366667 0
0.766667 0.366667 0
0.8 0.366667 0
0.833333 0.366667 0
0.866667 0.366667 0
0.9 0.366667 0
0.933333 0.366667 0
0.966667 0.366667 0
1 0.366667 0
0 0.4 0
0.0333333 0.4 0
0.0666667 0.4 0
0.1 0.4 0
0.133333 0.4 0
0.166667 0.4 0
0.2 0.4 0
0.233333 0.4 0
0.266667 0.4 0
0.3 0.4 0
0.333333 0.4 0
0.366667 0.4 0
0.4 0.4 0
0.433333 0.4 0
0.466667 0.4 0
0.5 0.4 0
0.533333 0.4 0
0.566667 0.4 0
0.6 0.4 0
0.633333 0.4 0
0.666667 0.4 0
0.7 0.4 0
0.733333 0.4 0
0.766667 0.4 0
0.8 0.4 0
0.833333 0.4 0
0.866667 0.4 0
0.9 0.4 0
0.933333 0.4 0
0.966667 0.4 0
1 0.4 0
0 0.433333 0
0.0333333 0.433333 0
0.0666667 0.433333 0
0.1 0.433333 0
0.133333 0.433333 0
0.166667 0.433333 0
0.2 0.433333 0
0.233333 0.433333 0
0.266667 0.433333 0
0.3 0.433333 0
0.333333 0.433333 0
0.366667 0.433333 0
0.4 0.433333 0
0.433333 0.433333 0
0.466667 0.433333 0
0.5 0.433333 0
0.533333 0.433333 0
0.566667 0.433333 0
0.6 0.433333 0
0.633333 0.433333 0
0.666667 0.433333 0
0.7 0.433333 0
0.733333 0.433333 0
0.766667 0.433333 0
0.8 0.433333 0
0.833333 0.433333 0
0.866667 0.433333 0
0.9 0.433333 0
0.933333 0.433333 0
0.966667 0.433333 0
1 0.433333 0
0 0.466667 0
0.0333333 0.466667 0
0.0666667 0.466667 0
0.1 0.466667 0
0.133333 0.466667 0
0.166667 0.466667 0
0.2 0.466667 0
0.233333 0.466667 0
0.266667 0.466667 0
0.3 0.466667 0
0.333333 0.466667 0
0.366667 0.466667 0
0.4 0.466667 0
0.433333 0.466667 0
0.466667 0.466667 0
0.5 0.466667 0
0.533333 0.466667 0
0.566667 0.466667 0
0.6 0.466667 0
0.633333 0.466667 0
0.666667 0.466667 0
0.7 0.466667 0
0.733333 0.466667 0
0.766667 0.466667 0
0.8 0.466667 0
0.833333 0.466667 0
0.866667 0.466667 0
0.9 0.466667 0
0.933333 0.466667 0
0.966667 0.466667 0
1 0.466667 0
0 0.5 0
0.0333333 0.5 0
0.0666667 0.5 0
0.1 0.5 0
0.133333 0.5 0
0.166667 0.5 0
0.2 0.5 0
0.233333 0.5 0
0.266667 0.5 0
0.3 0.5 0
0.333333 0.5 0
0.366667 0.5 0
0.4 0.5 0
0.433333 0.5 0
0.466667 0.5 0
0.5 0.5 0
0.533333 0.5 0
0.566667 0.5 0
0.6 0.5 0
0.633333 0.5 0
0.666667 0.5 0
0.7 0.5 0
0.733333 0.5 0
0.766667 0.5 0
0.8 0.5 0
0.833333 0.5 0
0.866667 0.5 0
0.9 0.5 0
0.933333 0.5 0
0.966667 0.5 0
1 0.5 0
0 0.533333 0
0.0333333 0.533333 0
0.0666667 0.533333 0
0.1 0.533333 0
0.133333 0.533333 0
0.166667 0.533333 0
0.2 0.533333 0
0.233333 0.533333 0
0.266667 0.533333 0
0.3 0.533333 0
0.333333 0.533333 0
0.366667 0.533333 0
0.4 0.533333 0
0.433333 0.533333 0
0.466667 0.533333 0
0.5 0.533333 0
0.533333 0.533333 0
0.566667 0.533333 0
0.6 0.533333 0
0.633333 0.533333 0
0.666667 0.533333 0
0.7 0.533333 0
0.733333 0.533333 0
0.766667 0.533333 0
0.8 0.533333 0
0.833333 0.533333 0
0.866667 0.533333 0
0.9 0.533333 0
0.933333 0.533333 0
0.966667 0.533333 0
1 0.533333 0
0 0.566667 0
0.0333333 0.566667 0
0.0666667 0.566667 0
0.1 0.566667 0
0.133333 0.566667 0
0.166667 0.566667 0
0.2 0.566667 0
0.233333 0.566667 0
0.266667 0.566667 0
0.3 0.566667 0
0.333333 0.566667 0
0.366667 0.566667 0
0.4 0.566667 0
0.433333 0.566667 0
0.466667 0.566667 0
0.5 0.566667 0
0.533333 0.566667 0
0.566667 0.566667 0
0.6 0.566667 0
0.633333 0.566667 0
0.666667 0.566667 0
0.7 0.566667 0
0.733333 0.566667 0
0.766667 0.566667 0
0.8 0.566667 0
0.833333 0.566667 0
0.866667 0.566667 0
0.9 0.566667 0
0.933333 0.566667 0
0.966667 0.566667 0
1 0.566667 0
0 0.6 0
0.0333333 0.6 0
0.0666667 0.6 0
0.1 0.6 0
0.133333 0.6 0
0.166667 0.6 0
0.2 0.6 0
0.233333 0.6 0
0.266667 0.6 0
0.3 0.6 0
0.333333 0.6 0
0.366667 0.6 0
0.4 0.6 0
0.433333 0.6 0
0.466667 0.6 0
0.5 0.6 0
0.533333 0.6 0
0.566667 0.6 0
0.6 0.6 0
0.633333 0.6 0
0.666667 0.6 0
0.7 0.6 0
0.733333 0.6 0
0.766667 0.6 0
0.8 0.6 0
0.833333 0.6 0
0.866667 0.6 0
0.9 0.6 0
0.933333 0.6 0
0.966667 0.6 0
1 0.6 0
0 0.633333 0
0.0333333 0.633333 0
0.0666667 0.633333 0
0.1 0.633333 0
0.133333 0.633333 0
0.166667 0.633333 0
0.2 0.633333 0
0.233333 0.633333 0
0.266667 0.633333 0
0.3 0.633333 0
0.333333 0.633333 0
0.366667 0.633333 0
0.4 0.633333 0
0.433333 0.633333 0
0.466667 0.633333 0
0.5 0.633333 0
0.533333 0.633333 0
0.566667 0.633333 0
0.6 0.633333 0
0.633333 0.633333 0
0.666667 0.633333 0
0.7 0.633333 0
0.733333 0.633333 0
0.766667 0.633333 0
0.8 0.633333 0
0.833333 0.633333 0
0.866667 0.633333 0
0.9 0.633333 0
0.933333 0.633333 0
0.966667 0.633333 0
1 0.633333 0
0 0.666667 0
0.0333333 0.666667 0
0.0666667 0.666667 0
0.1 0.666667 0
0.133333 0.666667 0
0.166667 0.666667 0
0.2 0.666667 0
0.233333 0.666667 0
0.266667 0.666667 0
0.3 0.666667 0
0.333333 0.666667 0
0.366667 0.666667 0
0.4 0.666667 0
0.433333 0.666667 0
0.466667 0.666667 0
0.5 0.666667 0
0.533333 0.666667 0
0.566667 0.666667 0
0.6 0.666667 0
0.633333 0.666667 0
0.666667 0.666667 0
0.7 0.666667 0
0.733333 0.666667 0
0.766667 0.666667 0
0.8 0.666667 0
0.833333 0.666667 0
0.866667 0.666667 0
0.9 0.666667 0
0.933333 0.666667 0
0.966667 0.666667 0
1 0.666667 0
0 0.7 0
0.0333333 0.7 0
0.0666667 0.7 0
0.1 0.7 0
0.133333 0.7 0
0.166667 0.7 0
0.2 0.7 0
0.233333 0.7 0
0.266667 0.7 0
0.3 0.7 0
0.333333 0.7 0
0.366667 0.7 0
0.4 0.7 0
0.433333 0.7 0
0.466667 0.7 0
0.5 0.7 0
0.533333 0.7 0
0.566667 0.7 0
0.6 0.7 0
0.633333 0.7 0
0.666667 0.7 0
0.7 0.7 0
0.733333 0.7 0
0.766667 0.7 0
0.8 0.7 0
0.833333 0.7 0
0.866667 0.7 0
0.9 0.7 0
0.933333 0.7 0
0.966667 0.7 0
1 0.7 0
0 0.733333 0
0.0333333 0.733333 0
0.0666667 0.733333 0
0.1 0.733333 0
0.133333 0.733333 0
0.166667 0.733333 0
0.2 0.733333 0
0.233333 0.733333 0
0.266667 0.733333 0
0.3 0.733333 0
0.333333 0.733333 0
0.366667 0.733333 0
0.4 0.733333 0
0.433333 0.733333 0
0.466667 0.733333 0
0.5 0.733333 0
0.533333 0.733333 0
0.566667 0.733333 0
0.6 0.733333 0
0.633333 0.733333 0
0.666667 0.733333 0
0.7 0.733333 0
0.733333 0.733333 0
0.766667 0.733333 0
0.8 0.733333 0
0.833333 0.733333 0
0.866667 0.733333 0
0.9 0.733333 0
0.933333 0.733333 0
0.966667 0.733333 0
1 0.733333 0
0 0.766667 0
0.0333333 0.766667 0
0.0666667 0.766667 0
0.1 0.766667 0
0.133333 0.766667 0
0.166667 0.766667 0
0.2 0.766667 0
0.233333 0.766667 0
0.266667 0.766667 0
0.3 0.766667 0
0.333333 0.766667 0
0.366667 0.766667 0
0.4 0.766667 0
0.433333 0.766667 0
0.466667 0.766667 0
0.5 0.766667 0
0.533333 0.766667 0
0.566667 0.766667 0
0.6 0.766667 0
0.633333 0.766667 0
0.666667 0.766667 0
0.7 0.766667 0
0.733333 0.766667 0
0.766667 0.766667 0
0.8 0.766667 0
0.833333 0.766667 0
0.866667 0.766667 0
0.9 0.766667 0
0.933333 0.766667 0
0.966667 0.766667 0
1 0.766667 0
0 0.8 0
0.0333333 0.8 0
0.0666667 0.8 0
0.1 0.8 0
0.133333 0.8 0
0.166667 0.8 0
0.2 0.8 0
0.233333 0.8 0
0.266667 0.8 0
0.3 0.8 0
0.333333 0.8 0
0.366667 0.8 0
0.4 0.8 0
0.433333 0.8 0
0.466667 0.8 0
0.5 0.8 0
0.533333 0.8 0
0.566667 0.8 0
0.6 0.8 0
0.633333 0.8 0
0.666667 0.8 0
0.7 0.8 0
0.733333 0.8 0
0.766667 0.8 0
0.8 0.8 0
0.833333 0.8 0
0.866667 0.8 0
0.9 0.8 0
0.933333 0.8 0
0.966667 0.8 0
1 0.8 0
0 0.833333 0
0.0333333 0.833333 0
0.0666667 0.833333 0
0.1 0.833333 0
0.133333 0.833333 0
0.166667 0.833333 0
0.2 0.833333 0
0.233333 0.833333 0
0.266667 0.833333 0
0.3 0.833333 0
0.333333 0.833333 0
0.366667 0.833333 0
0.4 0.833333 0
0.433333 0.833333 0
0.466667 0.833333 0
0.5 0.833333 0
0.533333 0.833333 0
0.566667 0.833333 0
0.6 0.833333 0
0.633333 0.833333 0
0.666667 0.833333 0
0.7 0.833333 0
0.733333 0.833333 0
0.766667 0.833333 0
0.8 0.833333 0
0.833333 0.833333 0
0.866667 0.833333 0
0.9 0.833333 0
0.933333 0.833333 0
0.966667 0.833333 0
1 0.833333 0
0 0.866667 0
0.0333333 0.866667 0
0.0666667 0.866667 0
0.1 0.866667 0
0.133333 0.866667 0
0.166667 0.866667 0
0.2 0.866667 0
0.233333 0.866667 0
0.266667 0.866667 0
0.3 0.866667 0
0.333333 0.866667 0
0.366667 0.866667 0
0.4 0.866667 0
0.433333 0.866667 0
0.466667 0.866667 0
0.5 0.866667 0
0.533333 0.866667 0
0.566667 0.866667 0
0.6 0.866667 0
0.633333 0.866667 0
0.666667 0.866667 0
0.7 0.866667 0
0.733333 0.866667 0
0.766667 0.866667 0
0.8 0.866667 0
0.833333 0.866667 0
0.866667 0.866667 0
0.9 0.866667 0
0.933333 0.866667 0
0.966667 0.866667 0
1 0.866667 0
0 0.9 0
0.0333333 0.9 0
0.0666667 0.9 0
0.1 0.9 0
0.133333 0.9 0
0.166667 0.9 0
0.2 0.9 0
0.233333 0.9 0
0.266667 0.9 0
0.3 0.9 0
0.333333 0.9 0
0.366667 0.9 0
0.4 0.9 0
0.433333 0.9 0
0.466667 0.9 0
0.5 0.9 0
0.533333 0.9 0
0.566667 0.9 0
0.6 0.9 0
0.633333 0.9 0
0.666667 0.9 0
0.7 0.9 0
0.733333 0.9 0
0.766667 0.9 0
0.8 0.9 0
0.833333 0.9 0
0.866667 0.9 0
0.9 0.9 0
0.933333 0.9 0
0.966667 0.9 0
1 0.9 0
0 0.933333 0
0.0333333 0.933333 0
0.0666667 0.933333 0
0.1 0.933333 0
0.133333 0.933333 0
0.166667 0.933333 0
0.2 0.933333 0
0.233333 0.933333 0
0.266667 0.933333 0
0.3 0.933333 0
0.333333 0.933333 0
0.366667 0.933333 0
0.4 0.933333 0
0.433333 0.933333 0
0.466667 0.933333 0
0.5 0.933333 0
0.533333 0.933333 0
0.566667 0.933333 0
0.6 0.933333 0
0.633333 0.933333 0
0.666667 0.933333 0
0.7 0.933333 0
0.733333 0.933333 0
0.766667 0.933333 0
0.8 0.933333 0
0.833333 0.933333 0
0.866667 0.933333 0
0.9 0.933333 0
0.933333 0.933333 0
0.966667 0.933333 0
1 0.933333 0
0 0.966667 0
0.0333333 0.966667 0
0.0666667 0.966667 0
0.1 0.966667 0
0.133333 0.966667 0
0.166667 0.966667 0
0.2 0.966667 0
0.233333 0.966667 0
0.266667 0.966667 0
0.3 0.966667 0
0.333333 0.966667 0
0.366667 0.966667 0
0.4 0.966667 0
0.433333 0.966667 0
0.466667 0.966667 0
0.5 0.966667 0
0.533333 0.966667 0
0.566667 0.966667 0
0.6 0.966667 0
0.633333 0.966667 0
0.666667 0.966667 0
0.7 0.966667 0
0.733333 0.966667 0
0.766667 0.966667 0
0.8 0.966667 0
0.833333 0.966667 0
0.866667 0.966667 0
0.9 0.966667 0
0.933333 0.966667 0
0.966667 0.966667 0
1 0.966667 0
0 1 0
0.0333333 1 0
0.0666667 1 0
0.1 1 0
0.133333 1 0
0.166667 1 0
0.2 1 0
0.233333 1 0
0.266667 1 0
0.3 1 0
0.333333 1 0
0.366667 1 0
0.4 1 0
0.433333 1 0
0.466667 1 0
0.5 1 0
0.533333 1 0
0.566667 1 0
0.6 1 0
0.633333 1 0
0.666667 1 0
0.7 1 0
0.733333 1 0
0.766667 1 0
0.8 1 0
0.833333 1 0
0.866667 1 0
0.9 1 0
0.933333 1 0
0.966667 1 0
1 1 0
POINT_DATA 961
SCALARS solution float 1
LOOKUP_TABLE default
0
0
0
0
0
0
0
0
0
0
0
0
0
0
0
0
0
0
0
0
0
0
0
0
0
0
0
0
0
0
0
0
0.00605902
0.0120489
0.0179016
0.023551
0.028934
0.0339911
0.0386675
0.0429131
0.0466835
0.0499397
0.0526487
0.0547837
0.0563236
0.0572535
0.0575645
0.0572535
0.0563236
0.0547837
0.0526487
0.0499397
0.0466835
0.0429131
0.0386675
0.0339911
0.028934
0.023551
0.0179016
0.0120489
0.00605902
0
0
0.0121875
0.0242357
0.0360075
0.0473697
0.0581952
0.0683647
0.0777676
0.0863035
0.0938831
0.100428
0.105874
0.110164
0.113259
0.115128
0.115753
0.115128
0.113259
0.110164
0.105874
0.100428
0.0938831
0.0863035
0.0777676
0.0683647
0.0581952
0.0473697
0.0360075
0.0242357
0.0121875
0
0
0.018456
0.0367004
0.0545249
0.0717276
0.0881157
0.103508
0.117738
0.130654
0.142121
0.152021
0.160257
0.166745
0.171425
0.17425
0.175195
0.17425
0.171425
0.166745
0.160257
0.152021
0.142121
0.130654
0.117738
0.103508
0.0881157
0.0717276
0.0545249
0.0367004
0.018456
0
0
0.0249371
0.0495871
0.0736673
0.096904
0.119036
0.13982
0.159029
0.17646
0.191931
0.205286
0.216392
0.225141
0.23145
0.235259
0.236533
0.235259
0.23145
0.225141
0.216392
0.205286
0.191931
0.17646
0.159029
0.13982
0.119036
0.096904
0.0736673
0.0495871
0.0249371
0
0
0.0317069
0.0630465
0.0936575
0.12319
0.151312
0.177713
0.202105
0.224232
0.243866
0.260808
0.274893
0.285986
0.293984
0.298811
0.300426
0.298811
0.293984
0.285986
0.274893
0.260808
0.243866
0.224232
0.202105
0.177713
0.151312
0.12319
0.0936575
0.0630465
0.0317069
0
0
0.0388461
0.0772386
0.114732
0.150895
0.185319
0.217623
0.247457
0.274509
0.298502
0.319197
0.336396
0.349937
0.359696
0.365587
0.367556
0.365587
0.359696
0.349937
0.336396
0.319197
0.298502
0.274509
0.247457
0.217623
0.185319
0.150895
0.114732
0.0772386
0.0388461
0
0
0.0464415
0.0923352
0.137143
0.180347
0.221456
0.260014
0.295605
0.327858
0.356448
0.381095
0.401569
0.417681
0.42929
0.436295
0.438637
0.436295
0.42929
0.417681
0.401569
0.381095
0.356448
0.327858
0.295605
0.260014
0.221456
0.180347
0.137143
0.0923352
0.0464415
0
0
0.0545881
0.108524
0.161168
0.211906
0.260158
0.305386
0.347107
0.384887
0.418352
0.447183
0.471117
0.489943
0.503501
0.511681
0.514414
0.511681
0.503501
0.489943
0.471117
0.447183
0.418352
0.384887
0.347107
0.305386
0.260158
0.211906
0.161168
0.108524
0.0545881
0
0
0.0633912
0.126013
0.187112
0.245967
0.301899
0.354286
0.402567
0.44625
0.484909
0.518186
0.545789
0.567488
0.583107
0.592526
0.595673
0.592526
0.583107
0.567488
0.545789
0.518186
0.484909
0.44625
0.402567
0.354286
0.301899
0.245967
0.187112
0.126013
0.0633912
0
0
0.0729691
0.145035
0.215316
0.282968
0.347206
0.407313
0.46265
0.51266
0.556868
0.594883
0.626386
0.65113
0.668929
0.679659
0.683243
0.679659
0.668929
0.65113
0.626386
0.594883
0.556868
0.51266
0.46265
0.407313
0.347206
0.282968
0.215316
0.145035
0.0729691
0
0
0.0834571
0.165856
0.246166
0.323407
0.396672
0.465139
0.528088
0.584897
0.635048
0.678115
0.713763
0.741734
0.76184
0.773952
0.777998
0.773952
0.76184
0.741734
0.713763
0.678115
0.635048
0.584897
0.528088
0.465139
0.396672
0.323407
0.246166
0.165856
0.0834571
0
0
0.0950123
0.188784
0.280111
0.367853
0.450967
0.528518
0.599699
0.663826
0.72034
0.768793
0.80884
0.840224
0.862761
0.876329
0.880859
0.876329
0.862761
0.840224
0.80884
0.768793
0.72034
0.663826
0.599699
0.528518
0.450967
0.367853
0.280111
0.188784
0.0950123
0
0
0.10782
0.214181
0.317671
0.416966
0.510865
0.598311
0.678406
0.750408
0.813726
0.867905
0.912604
0.947581
0.972668
0.987759
0.992796
0.987759
0.972668
0.947581
0.912604
0.867905
0.813726
0.750408
0.678406
0.598311
0.510865
0.416966
0.317671
0.214181
0.10782
0
0
0.122102
0.242479
0.359468
0.471526
0.57727
0.67551
0.765256
0.845718
0.91629
0.976528
1.02612
1.06485
1.09259
1.10926
1.11482
1.10926
1.09259
1.06485
1.02612
0.976528
0.91629
0.845718
0.765256
0.67551
0.57727
0.471526
0.359468
0.242479
0.122102
0
0
0.138131
0.274205
0.406253
0.532464
0.65125
0.76127
0.861451
0.950971
1.02923
1.09583
1.15051
1.19312
1.22359
1.24187
1.24797
1.24187
1.22359
1.19312
1.15051
1.09583
1.02923
0.950971
0.861451
0.76127
0.65125
0.532464
0.406253
0.274205
0.138131
0
0
0.156245
0.310014
0.458949
0.600917
0.734083
0.856955
0.968384
1.06755
1.15389
1.2271
1.287
1.33356
1.36677
1.38668
1.39331
1.38668
1.36677
1.33356
1.287
1.2271
1.15389
1.06755
0.968384
0.856955
0.734083
0.600917
0.458949
0.310014
0.156245
0
0
0.176879
0.350734
0.518716
0.678287
0.827331
0.964194
1.08768
1.19701
1.29174
1.37169
1.43686
1.48734
1.52326
1.54475
1.55191
1.54475
1.52326
1.48734
1.43686
1.37169
1.29174
1.19701
1.08768
0.964194
0.827331
0.678287
0.518716
0.350734
0.176879
0
0
0.200595
0.39744
0.587038
0.766346
0.932918
1.08495
1.22125
1.34115
1.44443
1.53111
1.60142
1.65567
1.69416
1.71715
1.72479
1.71715
1.69416
1.65567
1.60142
1.53111
1.44443
1.34115
1.22125
1.08495
0.932918
0.766346
0.587038
0.39744
0.200595
0
0
0.228149
0.451556
0.665856
0.867366
1.05326
1.22162
1.37134
1.50203
1.61376
1.70691
1.78205
1.83975
1.88054
1.90484
1.91291
1.90484
1.88054
1.83975
1.78205
1.70691
1.61376
1.50203
1.37134
1.22162
1.05326
0.867366
0.665856
0.451556
0.228149
0
0
0.260579
0.51502
0.75777
0.984315
1.19142
1.37714
1.54065
1.68197
1.80171
1.90075
1.98009
2.04069
2.08336
2.10871
2.11712
2.10871
2.08336
2.04069
1.98009
1.90075
1.80171
1.68197
1.54065
1.37714
1.19142
0.984315
0.75777
0.51502
0.260579
0
0
0.299359
0.590549
0.866342
1.12116
1.35135
1.55516
1.73232
1.8836
2.01038
2.11426
2.19683
2.2595
2.30342
2.32944
2.33805
2.32944
2.30342
2.2595
2.19683
2.11426
2.01038
1.8836
1.73232
1.55516
1.35135
1.12116
0.866342
0.590549
0.299359
0
0
0.346657
0.68207
0.996592
1.28327
1.53819
1.76018
1.95004
2.10979
2.24193
2.34901
2.43337
2.49695
2.54128
2.56745
2.5761
2.56745
2.54128
2.49695
2.43337
2.34901
2.24193
2.10979
1.95004
1.76018
1.53819
1.28327
0.996592
0.68207
0.346657
0
0
0.405794
0.795481
1.15579
1.47808
1.75863
1.99769
2.19803
2.36358
2.49844
2.60637
2.69054
2.7535
2.79715
2.82283
2.8313
2.82283
2.79715
2.7535
2.69054
2.60637
2.49844
2.36358
2.19803
1.99769
1.75863
1.47808
1.15579
0.795481
0.405794
0
0
0.48213
0.940013
1.3548
1.71602
2.02137
2.27424
2.48083
2.64792
2.78168
2.88725
2.96871
3.02915
3.07082
3.09524
3.10329
3.09524
3.07082
3.02915
2.96871
2.88725
2.78168
2.64792
2.48083
2.27424
2.02137
1.71602
1.3548
0.940013
0.48213
0
0
0.584866
1.13089
1.61036
2.01176
2.33738
2.59713
2.80286
2.96521
3.09273
3.19192
3.26763
3.32334
3.36154
3.38384
3.39117
3.38384
3.36154
3.32334
3.26763
3.19192
3.09273
2.96521
2.80286
2.59713
2.33738
2.01176
1.61036
1.13089
0.584866
0
0
0.731129
1.39477
1.94903
2.38558
2.71952
2.97342
3.16747
3.31663
3.43154
3.51965
3.58619
3.63478
3.66792
3.6872
3.69353
3.6872
3.66792
3.63478
3.58619
3.51965
3.43154
3.31663
3.16747
2.97342
2.71952
2.38558
1.94903
1.39477
0.731129
0
0
0.95636
1.78215
2.41339
2.8634
3.1798
3.40767
3.57552
3.7013
3.79645
3.86846
3.92232
3.9614
3.98792
4.00331
4.00836
4.00331
3.98792
3.9614
3.92232
3.86846
3.79645
3.7013
3.57552
3.40767
3.1798
2.8634
2.41339
1.78215
0.95636
0
0
1.34725
2.39559
3.06965
3.46692
3.72329
3.89863
4.02368
4.11537
4.18371
4.2349
4.2729
4.30032
4.31886
4.3296
4.33312
4.3296
4.31886
4.30032
4.2729
4.2349
4.18371
4.11537
4.02368
3.89863
3.72329
3.46692
3.06965
2.39559
1.34725
0
0
2.15408
3.48982
3.95199
4.19396
4.33986
4.43608
4.50318
4.55168
4.58747
4.61409
4.63376
4.64791
4.65746
4.66298
4.66478
4.66298
4.65746
4.64791
4.63376
4.61409
4.58747
4.55168
4.50318
4.43608
4.33986
4.19396
3.95199
3.48982
2.15408
0
0
5
5
5
5
5
5
5
5
5
5
5
5
5
5
5
5
5
5
5
5
5
5
5
5
5
5
5
5
5
0
