# vtk DataFile Version 3.0
Poisson equation solution
ASCII
DATASET STRUCTURED_GRID
DIMENSIONS 11 21 1
POINTS 231 float
0 0 0
0.1 0 0
0.2 0 0
0.3 0 0
0.4 0 0
0.5 0 0
0.6 0 0
0.7 0 0
0.8 0 0
0.9 0 0
1 0 0
0 0.05 0
0.1 0.05 0
0.2 0.05 0
0.3 0.05 0
0.4 0.05 0
0.5 0.05 0
0.6 0.05 0
0.7 0.05 0
0.8 0.05 0
0.9 0.05 0
1 0.05 0
0 0.1 0
0.1 0.1 0
0.2 0.1 0
0.3 0.1 0
0.4 0.1 0
0.5 0.1 0
0.6 0.1 0
0.7 0.1 0
0.8 0.1 0
0.9 0.1 0
1 0.1 0
0 0.15 0
0.1 0.15 0
0.2 0.15 0
0.3 0.15 0
0.4 0.15 0
0.5 0.15 0
0.6 0.15 0
0.7 0.15 0
0.8 0.15 0
0.9 0.15 0
1 0.15 0
0 0.2 0
0.1 0.2 0
0.2 0.2 0
0.3 0.2 0
0.4 0.2 0
0.5 0.2 0
0.6 0.2 0
0.7 0.2 0
0.8 0.2 0
0.9 0.2 0
1 0.2 0
0 0.25 0
0.1 0.25 0
0.2 0.25 0
0.3 0.25 0
0.4 0.25 0
0.5 0.25 0
0.6 0.25 0
0.7 0.25 0
0.8 0.25 0
0.9 0.25 0
1 0.25 0
0 0.3 0
0.1 0.3 0
0.2 0.3 0
0.3 0.3 0
0.4 0.3 0
0.5 0.3 0
0.6 0.3 0
0.7 0.3 0
0.8 0.3 0
0.9 0.3 0
1 0.3 0
0 0.35 0
0.1 0.35 0
0.2 0.35 0
0.3 0.35 0
0.4 0.35 0
0.5 0.35 0
0.6 0.35 0
0.7 0.35 0
0.8 0.35 0
0.9 0.35 0
1 0.35 0
0 0.4 0
0.1 0.4 0
0.2 0.4 0
0.3 0.4 0
0.4 0.4 0
0.5 0.4 0
0.6 0.4 0
0.7 0.4 0
0.8 0.4 0
0.9 0.4 0
1 0.4 0
0 0.45 0
0.1 0.45 0
0.2 0.45 0
0.3 0.45 0
0.4 0.45 0
0.5 0.45 0
0.6 0.45 0
0.7 0.45 0
0.8 0.45 0
0.9 0.45 0
1 0.45 0
0 0.5 0
0.1 0.5 0
0.2 0.5 0
0.3 0.5 0
0.4 0.5 0
0.5 0.5 0
0.6 0.5 0
0.7 0.5 0
0.8 0.5 0
0.9 0.5 0
1 0.5 0
0 0.55 0
0.1 0.55 0
0.2 0.55 0
0.3 0.55 0
0.4 0.55 0
0.5 0.55 0
0.6 0.55 0
0.7 0.55 0
0.8 0.55 0
0.9 0.55 0
1 0.55 0
0 0.6 0
0.1 0.6 0
0.2 0.6 0
0.3 0.6 0
0.4 0.6 0
0.5 0.6 0
0.6 0.6 0
0.7 0.6 0
0.8 0.6 0
0.9 0.6 0
1 0.6 0
0 0.65 0
0.1 0.65 0
0.2 0.65 0
0.3 0.65 0
0.4 0.65 0
0.5 0.65 0
0.6 0.65 0
0.7 0.65 0
0.8 0.65 0
0.9 0.65 0
1 0.65 0
0 0.7 0
0.1 0.7 0
0.2 0.7 0
0.3 0.7 0
0.4 0.7 0
0.5 0.7 0
0.6 0.7 0
0.7 0.7 0
0.8 0.7 0
0.9 0.7 0
1 0.7 0
0 0.75 0
0.1 0.75 0
0.2 0.75 0
0.3 0.75 0
0.4 0.75 0
0.5 0.75 0
0.6 0.75 0
0.7 0.75 0
0.8 0.75 0
0.9 0.75 0
1 0.75 0
0 0.8 0
0.1 0.8 0
0.2 0.8 0
0.3 0.8 0
0.4 0.8 0
0.5 0.8 0
0.6 0.8 0
0.7 0.8 0
0.8 0.8 0
0.9 0.8 0
1 0.8 0
0 0.85 0
0.1 0.85 0
0.2 0.85 0
0.3 0.85 0
0.4 0.85 0
0.5 0.85 0
0.6 0.85 0
0.7 0.85 0
0.8 0.85 0
0.9 0.85 0
1 0.85 0
0 0.9 0
0.1 0.9 0
0.2 0.9 0
0.3 0.9 0
0.4 0.9 0
0.5 0.9 0
0.6 0.9 0
0.7 0.9 0
0.8 0.9 0
0.9 0.9 0
1 0.9 0
0 0.95 0
0.1 0.95 0
0.2 0.95 0
0.3 0.95 0
0.4 0.95 0
0.5 0.95 0
0.6 0.95 0
0.7 0.95 0
0.8 0.95 0
0.9 0.95 0
1 0.95 0
0 1 0
0.1 1 0
0.2 1 0
0.3 1 0
0.4 1 0
0.5 1 0
0.6 1 0
0.7 1 0
0.8 1 0
0.9 1 0
1 1 0
POINT_DATA 231
SCALARS solution float 1
LOOKUP_TABLE default
1
1
1
1
1
1
1
1
1
1
2
1
1.01091
1.01973
1.02868
1.03897
1.05215
1.07054
1.10041
1.15034
1.36362
2
1
1.02024
1.03761
1.05521
1.07547
1.10124
1.13726
1.1923
1.29588
1.54509
2
1
1.02835
1.05359
1.07933
1.10889
1.14629
1.19768
1.27485
1.40768
1.64817
2
1
1.03538
1.06763
1.10074
1.13871
1.18636
1.25071
1.34416
1.48956
1.71204
2
1
1.04136
1.07969
1.11924
1.1645
1.22081
1.29546
1.39963
1.54884
1.75384
2
1
1.0463
1.08967
1.13462
1.18593
1.24922
1.33159
1.44232
1.59135
1.78194
2
1
1.05016
1.09752
1.14672
1.20278
1.27137
1.35919
1.47373
1.62112
1.80081
2
1
1.05294
1.10317
1.15545
1.2149
1.28719
1.37857
1.49519
1.64079
1.81295
2
1
1.05462
1.10658
1.16071
1.22219
1.29666
1.39005
1.50766
1.652
1.81975
2
1
1.05518
1.10771
1.16247
1.22463
1.29982
1.39385
1.51176
1.65564
1.82195
2
1
1.05462
1.10658
1.16071
1.22219
1.29666
1.39005
1.50766
1.652
1.81975
2
1
1.05294
1.10317
1.15545
1.2149
1.28719
1.37857
1.49519
1.64079
1.81295
2
1
1.05016
1.09752
1.14672
1.20278
1.27137
1.35919
1.47373
1.62112
1.80081
2
1
1.0463
1.08967
1.13462
1.18593
1.24922
1.33159
1.44232
1.59135
1.78194
2
1
1.04136
1.07969
1.11924
1.1645
1.22081
1.29546
1.39963
1.54884
1.75384
2
1
1.03538
1.06763
1.10074
1.13871
1.18636
1.25071
1.34416
1.48956
1.71204
2
1
1.02835
1.05359
1.07933
1.10889
1.14629
1.19768
1.27485
1.40768
1.64817
2
1
1.02024
1.03761
1.05521
1.07547
1.10124
1.13726
1.1923
1.29588
1.54509
2
1
1.01091
1.01973
1.02868
1.03897
1.05215
1.07054
1.10041
1.15034
1.36362
2
1
1
1
1
1
1
1
1
1
1
2
